<VTKFile type="PolyData" version="1.0" byte_order="LittleEndian" header_type="UInt64">
  <PolyData>
    <Piece NumberOfPoints="10000" NumberOfVerts="0" NumberOfLines="0" NumberOfStrips="0" NumberOfPolys="9801">
      <PointData>
        <DataArray type="Float32" Name="zvalue" NumberOfComponents="1" format="ascii" RangeMin="0.3483867421746254" RangeMax="36.20442771911621">
          16.470973014831543 16.284114837646484 16.090686798095703 15.891483545303345 15.686678171157837 15.476006627082825
          15.257517576217651 15.031391382217407 14.79625678062439 14.551984310150146 14.298449516296387 14.037704944610596
          13.76770794391632 13.488356113433838 13.199112296104431 12.898746490478516 12.58760917186737 12.265570044517517
          11.926369667053223 11.535173773765564 11.115113377571106 10.674690186977386 10.21264111995697 9.725349426269531
          9.207005262374878 8.672596514225006 8.118739247322083 7.537197053432465 6.928173363208771 6.29489666223526
          5.641210377216339 4.980485677719116 4.2992923855781555 3.5958942472934723 2.8720634281635284 2.1403899788856506
          1.445860132575035 0.8906288519501686 0.6309919282793999 0.7022606208920479 0.9795861169695854 1.3457195311784744
          1.7409255802631378 2.150735169649124 2.575250208377838 3.0100837647914886 3.4447838068008423 3.8870377242565155
          4.3380531668663025 4.799368262290955 5.264427602291107 5.733449459075928 6.21157169342041 6.691315174102783
          7.16910856962204 7.639539361000061 8.11201685667038 8.569538831710815 9.016755223274231 9.449967086315155
          9.860530078411102 10.248011112213135 10.60408353805542 10.919594883918762 11.18450915813446 11.403531193733215
          11.601045370101929 11.855106353759766 12.21468210220337 12.737282633781433 13.443187952041626 14.053876757621765
          14.406764507293701 14.547118425369263 14.53512179851532 14.433444738388062 14.315784573554993 14.223327398300171
          14.170592188835144 14.184706211090088 14.33600902557373 14.833025932312012 15.542717695236206 16.156216979026794
          16.62789738178253 17.008888959884644 17.321863174438477 17.599888682365417 17.855002641677856 18.094057083129883
          18.314316749572754 18.51024889945984 18.688665986061096 18.859444618225098 19.027334213256836 19.18406867980957
          19.31017565727234 19.402453899383545 19.46026349067688 19.500961303710938 16.28087615966797 16.103591680526733
          15.917202711105347 15.724004983901978 15.526085138320923 15.321789383888245 15.111050009727478 14.8926522731781
          14.666606307029724 14.43145751953125 14.186699509620667 13.933738589286804 13.672999382019043 13.403034687042236
          13.123680114746094 12.834345817565918 12.533298254013062 12.221880078315735 11.89769196510315 11.546246528625488
          11.142632961273193 10.718457460403442 10.273223876953125 9.8049995303154 9.306763768196106 8.785722553730011
          8.248361647129059 7.687204420566559 7.096806049346924 6.481451034545898 5.843900382518768 5.196417361497879
          4.5315984189510345 3.8441162407398224 3.1366606056690216 2.4112816154956818 1.702245518565178 1.0809817090630531
          0.6932729929685593 0.6389622986316681 0.8460986018180847 1.1811975464224815 1.5627830028533936 1.9633809179067612
          2.3806376606225967 2.8087212443351746 3.23716339468956 3.6733540892601013 4.118575900793076 4.573540061712265
          5.032645165920258 5.496670424938202 5.9691082239151 6.443297863006592 6.914215922355652 7.379886090755463
          7.844035744667053 8.294098377227783 8.732938647270203 9.1548530459404 9.553146302700043 9.92499190568924
          10.261167407035828 10.549906373023987 10.787622213363647 10.988200068473816 11.201694011688232 11.498956441879272
          11.931047439575195 12.59312093257904 13.280454277992249 13.725051760673523 13.927342772483826 13.956298589706421
          13.871485352516174 13.74947738647461 13.64620316028595 13.581962585449219 13.57940673828125 13.688599586486816
          14.11782717704773 14.810551166534424 15.441773533821106 15.917737364768982 16.296977996826172 16.605566143989563
          16.88088870048523 17.133798599243164 17.368574261665344 17.583635210990906 17.77411198616028 17.94718325138092
          18.11311435699463 18.275837063789368 18.425798416137695 18.54473626613617 18.62830424308777 18.678579330444336
          18.714583158493042 18.74319088459015 16.090259909629822 15.912488341331482 15.735573768615723 15.549867153167725
          15.35652780532837 15.159343719482422 14.955913543701172 14.745648264884949 14.527260303497314 14.301085591316223
          14.065630435943604 13.8208087682724 13.568426609039307 13.307685136795044 13.03795051574707 12.75837755203247
          12.468504071235657 12.167036652565002 11.85516905784607 11.527730941772461 11.155801057815552 10.74792629480362
          10.319419264793396 9.868641138076782 9.390880167484283 8.88535076379776 8.363044440746307 7.821792304515839
          7.251034080982208 6.653504729270935 6.032173335552216 5.398015975952148 4.74961331486702 4.078358381986618
          3.3860509395599365 2.67391537129879 1.9615837931632996 1.2995720580220222 0.808794803917408 0.6216401606798172
          0.7377934753894806 1.0296599715948105 1.3929758220911026 1.783002108335495 2.192546993494034 2.6138516068458557
          3.036069929599762 3.466209590435028 3.905556946992874 4.354168951511383 4.807624071836472 5.267010450363159
          5.733677506446838 6.202165007591248 6.666169285774231 7.126857161521912 7.582427442073822 8.024548768997192
          8.454785346984863 8.86406797170639 9.248793363571167 9.602901041507721 9.914976000785828 10.17538070678711
          10.388972520828247 10.583433508872986 10.82608437538147 11.174357056617737 11.746347665786743 12.476720690727234
          13.023772120475769 13.299386978149414 13.376593589782715 13.318067073822021 13.197723388671875 13.084068298339844
          13.007664203643799 12.990031242370605 13.066883087158203 13.424498200416565 14.091424822807312 14.739799499511719
          15.222285389900208 15.599749326705933 15.90369701385498 16.175734996795654 16.42635202407837 16.656727075576782
          16.86664843559265 17.051796317100525 17.21930491924286 17.38085150718689 17.5382798910141 17.681300401687622
          17.79323160648346 17.867607712745667 17.910796999931335 17.942376136779785 17.96516764163971 17.980614066123962
          15.890307664871216 15.718437671661377 15.54362952709198 15.366920351982117 15.18114459514618 14.988465309143066
          14.7919682264328 14.58937931060791 14.379598140716553 14.161297798156738 13.934707522392273 13.69913387298584
          13.454357147216797 13.202541947364807 12.941837310791016 12.672267079353333 12.392608165740967 12.102071285247803
          11.800205111503601 11.486954689025879 11.153411746025085 10.762851119041443 10.35120290517807 9.917355954647064
          9.460342764854431 8.971427023410797 8.464173138141632 7.940256118774414 7.390388250350952 6.81081223487854
          6.206126630306244 5.585398554801941 4.953445196151733 4.298537403345108 3.6216227412223816 2.924800306558609
          2.2172844409942627 1.5334931015968323 0.9676270112395287 0.6545929908752441 0.6614131927490234 0.894712008535862
          1.2326145619153976 1.6103054583072662 2.011276036500931 2.4255448430776596 2.8414020240306854 3.265674650669098
          3.6988058984279633 4.141331881284714 4.589303225278854 5.043877363204956 5.5050965547561646 5.968109309673309
          6.425003886222839 6.8804028034210205 7.327112972736359 7.7609140276908875 8.18088173866272 8.577178955078125
          8.946470975875854 9.279557585716248 9.5639209151268 9.796685934066772 9.991007089614868 10.194240093231201
          10.470585823059082 10.929382085800171 11.645843863487244 12.295005917549133 12.659189701080322 12.794084310531616
          12.770156979560852 12.658736944198608 12.537271618843079 12.448381781578064 12.416576504707336 12.46755564212799
          12.754864692687988 13.386473774909973 14.049494504928589 14.541515350341797 14.917073726654053 15.216424107551575
          15.48454463481903 15.732611656188965 15.95874285697937 16.163342237472534 16.3431499004364 16.505417466163635
          16.662736535072327 16.81478476524353 16.950527548789978 17.055158376693726 17.120404720306396 17.157130479812622
          17.184200286865234 17.201671719551086 17.21474051475525 17.232258558273315 15.671782493591309 15.517441391944885
          15.346426725387573 15.173677444458008 14.997146606445312 14.81182074546814 14.62004566192627 14.423972249031067
          14.22228717803955 14.012929916381836 13.794664025306702 13.567652463912964 13.332103729248047 13.087624549865723
          12.83620023727417 12.575597167015076 12.306076526641846 12.026422262191772 11.735030174255371 11.432641863822937
          11.116690158843994 10.76384162902832 10.368257522583008 9.95145070552826 9.512034952640533 9.044554352760315
          8.552815914154053 8.04408597946167 7.513253450393677 6.953158617019653 6.366351246833801 5.75868958234787
          5.142976015806198 4.504555404186249 3.8437123000621796 3.161325603723526 2.4648351818323135 1.7729812413454056
          1.1572848111391068 0.7372497692704201 0.6239908114075661 0.7809375822544098 1.0837046429514885 1.4456658065319061
          1.8368872851133347 2.243783563375473 2.653229743242264 3.0717099010944366 3.49843692779541 3.9351984560489655
          4.377651363611221 4.827435076236725 5.283505916595459 5.740871071815491 6.1903427839279175 6.6402223110198975
          7.0777923464775085 7.502943158149719 7.9111955761909485 8.293198227882385 8.64429497718811 8.952720284461975
          9.207595944404602 9.414523899555206 9.597904801368713 9.81834888458252 10.164189338684082 10.801372528076172
          11.531601548194885 12.001917839050293 12.204136967658997 12.224645614624023 12.13108777999878 12.00539743900299
          11.904277801513672 11.858736872673035 11.888604164123535 12.111464142799377 12.697017192840576 13.370358347892761
          13.874957084655762 14.249188661575317 14.54394543170929 14.807406902313232 15.052599430084229 15.274462699890137
          15.473706245422363 15.648045539855957 15.805570483207703 15.958759665489197 16.10529935359955 16.233638525009155
          16.33033061027527 16.386862635612488 16.417677640914917 16.440056204795837 16.452808380126953 16.46444272994995
          16.47993266582489 16.48730432987213 15.449162364006042 15.298495769500732 15.143975019454956 14.973113536834717
          14.802979588508606 14.626805782318115 14.441914558410645 14.25106406211853 14.055507183074951 13.854853987693787
          13.6457759141922 13.427217245101929 13.200299978256226 12.964614033699036 12.720864295959473 12.46961498260498
          12.209396123886108 11.939631938934326 11.659841418266296 11.367355108261108 11.063946008682251 10.744751274585724
          10.371694386005402 9.970984995365143 9.549312472343445 9.103180289268494 8.62699556350708 8.133448898792267
          7.620710790157318 7.080430030822754 6.511904418468475 5.920433342456818 5.318213164806366 4.696344822645187
          4.051876127719879 3.3848546743392944 2.7009060084819794 2.011567249894142 1.3657447844743729 0.86318638920784
          0.6302876695990562 0.6938289478421211 0.9489242136478424 1.2901025116443634 1.6696861535310745 2.0686899423599243
          2.471654936671257 2.8842441141605377 3.304649233818054 3.735816925764084 4.172796219587326 4.6176550686359406
          5.068935036659241 5.5192344188690186 5.962191820144653 6.405555903911591 6.834144771099091 7.249702155590057
          7.645242273807526 8.010913908481598 8.340592384338379 8.620008707046509 8.846349537372589 9.029424607753754
          9.211073756217957 9.462929964065552 9.971524775028229 10.729862213134766 11.31908655166626 11.603455543518066
          11.676414728164673 11.61052405834198 11.4872407913208 11.375400066375732 11.315546035766602 11.327829599380493
          11.49558687210083 12.024328470230103 12.70205271244049 13.22256326675415 13.59607219696045 13.886348247528076
          14.144795060157776 14.386361718177795 14.603855848312378 14.79757297039032 14.966771006584167 15.119813084602356
          15.268881559371948 15.409749865531921 15.530662417411804 15.618797302246094 15.666810393333435 15.69251811504364
          15.709733486175537 15.718953371047974 15.729746103286743 15.74200189113617 15.745239496231079 15.740969181060791
          15.22082805633545 15.075605869293213 14.924099922180176 14.769645690917969 14.6005357503891 14.431756019592285
          14.255951523780823 14.071556091308594 13.881717681884766 13.686975359916687 13.48706316947937 13.277868270874023
          13.059417724609375 12.832691311836243 12.59702444076538 12.354105114936829 12.103100776672363 11.843016028404236
          11.572844982147217 11.292075157165527 10.998961448669434 10.694066524505615 10.359428584575653 9.977866768836975
          9.572470128536224 9.144803047180176 8.687167465686798 8.208982110023499 7.712678015232086 7.19197142124176
          6.64203417301178 6.0679017305374146 5.479467570781708 4.873984545469284 4.245973467826843 3.594932973384857
          2.9239330887794495 2.2445749789476395 1.5830964297056198 1.022758200764656 0.6811258494853973 0.6390296444296837
          0.8318130895495415 1.14499931037426 1.5103096663951874 1.900337502360344 2.2967773526906967 2.7033045291900635
          3.1175366044044495 3.543055146932602 3.9751140773296356 4.415018975734711 4.860767334699631 5.30389004945755
          5.74152410030365 6.176193714141846 6.5964139103889465 7.000856697559357 7.382125914096832 7.728865683078766
          8.033137798309326 8.282121658325195 8.478283703327179 8.641583263874054 8.826104938983917 9.188847064971924
          9.896717011928558 10.600700378417969 10.988110780715942 11.122973203659058 11.095429182052612 10.980942249298096
          10.86151111125946 10.78742504119873 10.784083604812622 10.907094955444336 11.370627284049988 12.044381618499756
          12.583610892295837 12.958035469055176 13.243731617927551 13.496720552444458 13.733835339546204 13.946873188018799
          14.134879231452942 14.29931640625 14.448192119598389 14.59315299987793 14.728032231330872 14.841188788414001
          14.920616149902344 14.960589289665222 14.981552839279175 14.993467330932617 15.000185251235962 15.009857416152954
          15.018281817436218 15.017652034759521 15.01088285446167 14.99940824508667 14.985958099365234 14.847289085388184
          14.700159072875977 14.549060344696045 14.39497423171997 14.228396773338318 14.060276985168457 13.884957432746887
          13.70110833644867 13.512394070625305 13.318829655647278 13.1189706325531 12.909978151321411 12.691802024841309
          12.46543264389038 12.230022549629211 11.987653732299805 11.736656308174133 11.476235628128052 11.205533027648926
          10.923510074615479 10.629815995693207 10.322219014167786 9.969491004943848 9.581982493400574 9.170510292053223
          8.732825875282288 8.270100951194763 7.789884269237518 7.287950575351715 6.75759744644165 6.201261520385742
          5.626348078250885 5.037461906671524 4.4259078204631805 3.791356861591339 3.1346106827259064 2.466776356101036
          1.8025064021348953 1.204616367816925 0.7728534266352654 0.6211146712303162 0.7365381047129631 1.0119602009654045
          1.359409585595131 1.7390457093715668 2.128610908985138 2.5289798974990845 2.937124937772751 3.3570916652679443
          3.784483939409256 4.219135642051697 4.659294307231903 5.095246493816376 5.527188777923584 5.952540695667267
          6.364023804664612 6.755674421787262 7.119998931884766 7.445033431053162 7.720002353191376 7.935557663440704
          8.101312100887299 8.244085252285004 8.477911949157715 9.057514786720276 9.836107313632965 10.35010814666748
          10.560168743133545 10.579026341438293 10.484085083007812 10.361831426620483 10.274330258369446 10.256435632705688
          10.344836711883545 10.737498164176941 11.39762556552887 11.957347393035889 12.335143327713013 12.615969181060791
          12.86330235004425 13.094880938529968 13.303325057029724 13.485808968544006 13.64580774307251 13.790817975997925
          13.931503176689148 14.060023069381714 14.16499400138855 14.235782146453857 14.268346071243286 14.284558653831482
          14.291786193847656 14.296598434448242 14.304565191268921 14.30866539478302 14.304701805114746 14.295294284820557
          14.279377698898315 14.255608916282654 14.741759419441223 14.611410140991211 14.471442222595215 14.324832916259766
          14.174335479736328 14.02086853981018 13.856799006462097 13.689402461051941 13.514595031738281 13.331331133842468
          13.14373779296875 12.951446533203125 12.751729488372803 12.542977809906006 12.325044631958008 12.09878921508789
          11.863499283790588 11.621121406555176 11.369936227798462 11.108873963356018 10.837725341320038 10.554924011230469
          10.26120525598526 9.944599032402039 9.575964391231537 9.181846559047699 8.76251208782196 8.316088616847992
          7.852345943450928 7.367633759975433 6.857710242271423 6.319647908210754 5.758731186389923 5.186921864748001
          4.591605365276337 3.9735690355300903 3.3323143124580383 2.677194207906723 2.0193782597780228 1.3984814584255219
          0.8981895074248314 0.6421671360731125 0.667591504752636 0.8934410810470581 1.217806100845337 1.5851043611764908
          1.9672967046499252 2.360983207821846 2.7636954188346863 3.178086280822754 3.6003712117671967 4.029986172914505
          4.464359641075134 4.893247067928314 5.318968772888184 5.734967052936554 6.135282397270203 6.5132046937942505
          6.857546389102936 7.157033443450928 7.397979378700256 7.578274846076965 7.706779181957245 7.845879435539246
          8.251926183700562 9.024258017539978 9.677500665187836 9.983963966369629 10.05916154384613 9.994888424873352
          9.875074088573456 9.776410698890686 9.74372285604477 9.805741846561432 10.127647995948792 10.762053728103638
          11.343042731285095 11.726775169372559 12.002898097038269 12.244627237319946 12.469995856285095 12.673271179199219
          12.850523114204407 13.006313443183899 13.147636532783508 13.28382420539856 13.405415892601013 13.502070665359497
          13.564213991165161 13.589939594268799 13.601627349853516 13.604910850524902 13.6080961227417 13.613747954368591
          13.61354112625122 13.606434226036072 13.593662977218628 13.572713971138 13.545663118362427 13.512784957885742
          14.491985321044922 14.368072867393494 14.237699508666992 14.097996711730957 13.952276349067688 13.802535057067871
          13.649360179901123 13.487466812133789 13.320629239082336 13.146155714988708 12.963325500488281 12.776557445526123
          12.58470344543457 12.384779453277588 12.175819039344788 11.957869529724121 11.731679797172546 11.496957063674927
          11.254350781440735 11.003000259399414 10.741337776184082 10.470178306102753 10.18651020526886 9.890182912349701
          9.554013133049011 9.178160429000854 8.77736610174179 8.349013268947601 7.900624752044678 7.432354629039764
          6.9414567947387695 6.423091650009155 5.8771249651908875 5.3218269646167755 4.74308106303215 4.141696900129318
          3.5164993703365326 2.876466244459152 2.2273320853710175 1.5965012460947037 1.048557609319687 0.7008261382579803
          0.6288423165678978 0.7924209982156754 1.0868766158819199 1.4390577524900436 1.8129069209098816 2.19962976872921
          2.597121447324753 3.006010055541992 3.4232430160045624 3.8475561439990997 4.2753938138484955 4.697690844535828
          5.116451859474182 5.522714853286743 5.910593628883362 6.271700084209442 6.593233346939087 6.86212682723999
          7.063994407653809 7.200250744819641 7.2866804003715515 7.517353355884552 8.182467758655548 8.95510220527649
          9.387575030326843 9.531951367855072 9.507044851779938 9.39830207824707 9.293143153190613 9.245842278003693
          9.287099599838257 9.543784856796265 10.139551162719727 10.739514708518982 11.132734060287476 11.404621601104736
          11.640490293502808 11.859055399894714 12.056879997253418 12.229106664657593 12.380859971046448 12.518605947494507
          12.649989128112793 12.764559149742126 12.852306962013245 12.906155109405518 12.925555348396301 12.932989597320557
          12.933060884475708 12.93462598323822 12.937042713165283 12.93291175365448 12.922766923904419 12.905647039413452
          12.87963354587555 12.849743127822876 12.812637329101562 12.768809795379639 14.242970943450928 14.12268877029419
          13.998443722724915 13.86750841140747 13.728180646896362 13.582471251487732 13.432764530181885 13.279107928276062
          13.1184663772583 12.951616287231445 12.777097702026367 12.59439241886139 12.408466339111328 12.217271327972412
          12.01737642288208 11.80847692489624 11.590694427490234 11.364540100097656 11.130038738250732 10.886653184890747
          10.63512635231018 10.37354564666748 10.100647389888763 9.81511777639389 9.513884961605072 9.158478200435638
          8.776564240455627 8.366060197353363 7.932936608791351 7.482281267642975 7.009439408779144 6.511019945144653
          5.982767999172211 5.441721439361572 4.880589157342911 4.295639872550964 3.686949372291565 3.0633563101291656
          2.424743354320526 1.7935168892145157 1.2149966806173325 0.7923047244548798 0.6227565035223961 0.7122314348816872
          0.9681795835494995 1.3019221127033234 1.6656533181667328 2.045083671808243 2.4374565333127975 2.840817481279373
          3.252793252468109 3.6716419458389282 4.092542082071304 4.507949620485306 4.919343262910843 5.314379692077637
          5.6882476806640625 6.029323399066925 6.324275732040405 6.554686427116394 6.710295677185059 6.783071935176849
          6.876906096935272 7.350504457950592 8.172047734260559 8.759324371814728 8.992040455341339 9.017828285694122
          8.929892659187317 8.822978138923645 8.762859463691711 8.786803603172302 8.987879753112793 9.532067596912384
          10.14559030532837 10.55269455909729 10.821149349212646 11.050906896591187 11.26231837272644 11.454026699066162
          11.621582746505737 11.769461035728455 11.90373182296753 12.029623866081238 12.136893272399902 12.215595245361328
          12.261800765991211 12.275490880012512 12.27886438369751 12.276325821876526 12.2757887840271 12.274641633033752
          12.266907691955566 12.25316834449768 12.231137037277222 12.201414108276367 12.16754162311554 12.126588940620422
          12.079112887382507 12.029492497444153 13.987462997436523 13.872567176818848 13.753386497497559 13.629087448120117
          13.498001217842102 13.359017610549927 13.212857961654663 13.062817692756653 12.908408403396606 12.748548030853271
          12.581536769866943 12.40678584575653 12.22411847114563 12.038258910179138 11.847242832183838 11.646987199783325
          11.437885880470276 11.220083713531494 10.993808805942535 10.7599076628685 10.51749837398529 10.265316665172577
          10.002533555030823 9.727753579616547 9.440868020057678 9.121550440788269 8.758810043334961 8.368854999542236
          7.951254189014435 7.517796993255615 7.062095046043396 6.582734525203705 6.0740591287612915 5.546295762062073
          5.003126561641693 4.43498495221138 3.844916492700577 3.2364472150802612 2.6107843220233917 1.9837481677532196
          1.3889669924974442 0.9094820097088814 0.6495059356093407 0.6560086756944656 0.8635576814413071 1.1741173192858696
          1.5258450508117676 1.8979558497667313 2.284547656774521 2.682709962129593 3.0890093445777893 3.5024140179157257
          3.9161987006664276 4.324823170900345 4.727300345897675 5.110259056091309 5.466868162155151 5.784952521324158
          6.045937597751617 6.228524386882782 6.315371751785278 6.330470323562622 6.5782694816589355 7.3343788385391235
          8.080010294914246 8.434187889099121 8.522803962230682 8.466889798641205 8.36316567659378 8.294356942176819
          8.302928626537323 8.460072934627533 8.942285716533661 9.561677694320679 9.985847890377045 10.25233018398285
          10.475467681884766 10.679667234420776 10.864994645118713 11.027933955192566 11.172055840492249 11.30272650718689
          11.42268180847168 11.522274017333984 11.59174919128418 11.63049042224884 11.63980257511139 11.639480590820312
          11.634644985198975 11.631646275520325 11.626712918281555 11.615543365478516 11.597277998924255 11.570444107055664
          11.537540674209595 11.499339699745178 11.45432186126709 11.404869556427002 11.354784369468689 11.304262161254883
          13.722376823425293 13.608295679092407 13.493212819099426 13.374957919120789 13.249884366989136 13.11937940120697
          12.981015682220459 12.835538148880005 12.68583083152771 12.531638145446777 12.373263001441956 12.206431269645691
          12.031602382659912 11.849440574645996 11.663791418075562 11.47304630279541 11.272727966308594 11.063663721084595
          10.84602838754654 10.621185779571533 10.388354361057281 10.145423650741577 9.892208218574524 9.628210425376892
          9.351727187633514 9.06262755393982 8.723986446857452 8.3542400598526 7.956042945384979 7.53703761100769
          7.099734365940094 6.638967394828796 6.15047150850296 5.636162340641022 5.110703229904175 4.5597792863845825
          3.9882746636867523 3.3955784142017365 2.784161925315857 2.1649129390716553 1.5646585673093796 1.044668823480606
          0.7066140994429588 0.6259978860616684 0.7752488851547241 1.0566712096333504 1.3941755890846252 1.7580413669347763
          2.138459488749504 2.530848056077957 2.931845963001251 3.339797466993332 3.745794266462326 4.148321181535721
          4.539789825677872 4.908400744199753 5.245221197605133 5.533175528049469 5.750601351261139 5.86672306060791
          5.858892321586609 5.9120065569877625 6.4727365374565125 7.329880237579346 7.846787393093109 8.016797065734863
          8.004794597625732 7.912293374538422 7.838785767555237 7.834380924701691 7.957603275775909 8.373573958873749
          8.986871480941772 9.431290745735168 9.697499334812164 9.914248883724213 10.111074090003967 10.290041327476501
          10.448293805122375 10.588629364967346 10.715384483337402 10.829386711120605 10.92071533203125 10.981242537498474
          11.013151407241821 11.0186927318573 11.014771223068237 11.00800108909607 11.002108573913574 10.993242263793945
          10.97814166545868 10.954943656921387 10.92360258102417 10.887408256530762 10.845351219177246 10.79709768295288
          10.74657690525055 10.696191787719727 10.640318393707275 10.57998776435852 13.447734355926514 13.338088512420654
          13.224861145019531 13.109614968299866 12.992156505584717 12.864624381065369 12.734616756439209 12.597544312477112
          12.453898429870605 12.304861187934875 12.151241779327393 11.994900465011597 11.828299760818481 11.65327501296997
          11.471800327301025 11.286882758140564 11.096160411834717 10.895987510681152 10.687835156917572 10.471831500530243
          10.247382462024689 10.014132499694824 9.770607948303223 9.516113340854645 9.251219511032104 8.974396109580994
          8.672567903995514 8.322250604629517 7.943860590457916 7.540889799594879 7.12260776758194 6.679250776767731
          6.210281550884247 5.712129056453705 5.203361064195633 4.671729892492294 4.117170929908752 3.5408975780010223
          2.944136381149292 2.335356041789055 1.73537939786911 1.1903381645679474 0.789192371070385 0.6232404857873917
          0.7054305970668793 0.9509982392191887 1.2707420885562897 1.6254209131002426 1.9993224143981934 2.3857710361480713
          2.781427562236786 3.1833022236824036 3.5819919407367706 3.977290600538254 4.356291651725769 4.708225756883621
          5.019767165184021 5.270326137542725 5.425056159496307 5.436698377132416 5.3646814823150635 5.650360703468323
          6.497874081134796 7.209000825881958 7.494422137737274 7.537776350975037 7.467860758304596 7.394160270690918
          7.380402088165283 7.478238940238953 7.829006910324097 8.422456204891205 8.888319671154022 9.155932247638702
          9.367093443870544 9.556516885757446 9.729111552238464 9.882454514503479 10.018997192382812 10.141596794128418
          10.249529004096985 10.332300186157227 10.384246706962585 10.410311222076416 10.412242412567139 10.404627323150635
          10.396024823188782 10.387382507324219 10.37414836883545 10.354527711868286 10.326731085777283 10.2909255027771
          10.251290798187256 10.205297470092773 10.155728220939636 10.104973673820496 10.05058217048645 9.991828203201294
          9.929101645946503 9.859120786190033 13.172644138336182 13.064005017280579 12.953216314315796 12.840631127357483
          12.725526809692383 12.606042861938477 12.48019790649414 12.350080013275146 12.213403463363647 12.070610880851746
          11.922571539878845 11.770192980766296 11.615878105163574 11.449586510658264 11.274948000907898 11.094062685966492
          10.909524261951447 10.71915578842163 10.520736515522003 10.313398957252502 10.097442924976349 9.873197078704834
          9.639351844787598 9.394819974899292 9.139488816261292 8.873554289340973 8.595319032669067 8.274116396903992
          7.915648102760315 7.531154811382294 7.129483461380005 6.704608738422394 6.254760146141052 5.776771008968353
          5.282011657953262 4.76923069357872 4.232312113046646 3.672925055027008 3.0914677381515503 2.494714319705963
          1.8989480137825012 1.340391531586647 0.8908785656094551 0.6467651352286339 0.6561491563916206 0.8585283979773521
          1.1567344516515732 1.5005086809396744 1.8671889305114746 2.2475487142801285 2.637864977121353 3.0323525965213776
          3.424629360437393 3.811221033334732 4.175885409116745 4.506959319114685 4.787293463945389 4.983493655920029
          5.039081573486328 4.920083284378052 4.932117342948914 5.60415107011795 6.4920191168785095 6.943667888641357