<VTKFile type="PolyData" version="1.0" byte_order="LittleEndian" header_type="UInt64">
  <PolyData>
    <Piece NumberOfPoints="10000" NumberOfVerts="0" NumberOfLines="0" NumberOfStrips="0" NumberOfPolys="9801">
      <PointData>
        <DataArray type="Float32" Name="zvalue" NumberOfComponents="1" format="ascii" RangeMin="0.3462516572326422" RangeMax="37.2300968170166">
          37.2300968170166 36.94490098953247 36.55263710021973 36.02036762237549 35.306490421295166 34.3822021484375
          33.27061438560486 31.98753070831299 30.57153034210205 29.14097785949707 27.768392324447632 26.48944616317749
          25.30073642730713 24.285375595092773 23.667783975601196 23.505651235580444 23.626745462417603 23.85312819480896
          24.103139877319336 24.348304748535156 24.581003189086914 24.812503576278687 25.034891605377197 25.224964141845703
          25.36478900909424 25.460893630981445 25.513413190841675 25.524465560913086 25.49446678161621 25.42672634124756
          25.329538822174072 25.20355224609375 25.059901475906372 24.902151584625244 24.73640489578247 24.55699348449707
          24.366774559020996 24.160614728927612 23.939961433410645 23.704041481018066 23.44955849647522 23.18529510498047
          22.906036376953125 22.617765426635742 22.314231872558594 22.00511932373047 21.69434666633606 21.384632110595703
          21.078476309776306 20.773579835891724 20.470866203308105 20.17507767677307 19.885647773742676 19.604578375816345
          19.325854301452637 19.04814338684082 18.779534935951233 18.52154850959778 18.277793169021606 18.0474716424942
          17.8265597820282 17.61406409740448 17.40593147277832 17.206197023391724 17.01774823665619 16.844116687774658
          16.690764784812927 16.55967938899994 16.453659892082214 16.378431797027588 16.355748772621155 16.395191073417664
          16.44582986831665 16.447568893432617 16.415069937705994 16.38751983642578 16.379586815834045 16.38858938217163
          16.406229972839355 16.43274235725403 16.464993715286255 16.49701714515686 16.538872957229614 16.588790893554688
          16.635501384735107 16.68773353099823 16.74635136127472 16.809919714927673 16.877182841300964 16.94446349143982
          17.015278935432434 17.097618103027344 17.182621955871582 17.270647048950195 17.362985134124756 17.459681391716003
          17.560089111328125 17.66201615333557 17.766369819641113 17.876049041748047 35.94520664215088 35.72801208496094
          35.41925001144409 34.99439573287964 34.41372013092041 33.63696026802063 32.65401220321655 31.49048137664795
          30.1603741645813 28.734885692596436 27.330642700195312 26.007063627243042 24.7781982421875 23.665815353393555
          22.809499740600586 22.404033660888672 22.393009662628174 22.577876329421997 22.82747459411621 23.08572006225586
          23.330728769302368 23.566025733947754 23.796192407608032 24.004435539245605 24.163907051086426 24.280280351638794
          24.34900712966919 24.3790340423584 24.368400812149048 24.319008350372314 24.237186431884766 24.1274197101593
          23.99663734436035 23.850735664367676 23.696886777877808 23.529874324798584 23.354374885559082 23.162506103515625
          22.956663131713867 22.736305236816406 22.496898651123047 22.24772071838379 21.98314881324768 21.708531737327576
          21.417401790618896 21.12201976776123 20.824671626091003 20.528493881225586 20.235100269317627 19.943129897117615
          19.653448939323425 19.36963653564453 19.093514442443848 18.824867248535156 18.55830192565918 18.2908992767334
          18.03548312187195 17.791234970092773 17.56196391582489 17.344420909881592 17.137174606323242 16.936679363250732
          16.74261999130249 16.555840492248535 16.382630825042725 16.225971460342407 16.090307235717773 15.975518703460693
          15.884217739105225 15.827167510986328 15.82532787322998 15.874155163764954 15.911487579345703 15.901141881942749
          15.872870445251465 15.858935832977295 15.864588737487793 15.883952379226685 15.909069776535034 15.944618225097656
          15.97750174999237 16.019076824188232 16.070226669311523 16.120482325553894 16.175482034683228 16.23723030090332
          16.302988529205322 16.37224769592285 16.442402005195618 16.5141921043396 16.59734082221985 16.68422031402588
          16.77456045150757 16.868085861206055 16.96526038646698 17.0659521818161 17.168965578079224 17.271989583969116
          17.381726026535034 17.49006164073944 34.63390851020813 34.482778549194336 34.247499227523804 33.91371154785156
          33.452924728393555 32.819655418395996 31.980197191238403 30.941989421844482 29.727784633636475 28.3580641746521
          26.93826937675476 25.570038557052612 24.299766778945923 23.134693384170532 22.121838808059692 21.45758318901062
          21.24266266822815 21.341116189956665 21.569746017456055 21.83378529548645 22.098169326782227 22.33957290649414
          22.574169397354126 22.796086311340332 22.976396799087524 23.110849618911743 23.200855255126953 23.24850344657898
          23.256877899169922 23.226025581359863 23.16104793548584 23.068050146102905 22.94913148880005 22.816829681396484
          22.673118829727173 22.518613815307617 22.356467723846436 22.17879843711853 21.98740863800049 21.78252339363098
          21.558298110961914 21.324169874191284 21.074501276016235 20.81375563144684 20.535329341888428 20.253157019615173
          19.9690682888031 19.686504364013672 19.4051753282547 19.126296162605286 18.84986424446106 18.578046798706055
          18.31498908996582 18.058603286743164 17.801372528076172 17.547426223754883 17.305185079574585 17.074557304382324
          16.858877062797546 16.654600262641907 16.46073269844055 16.27255427837372 16.09194588661194 15.919811010360718
          15.762540340423584 15.623128890991211 15.503491401672363 15.404292941093445 15.327478885650635 15.288654446601868
          15.304403185844421 15.35433578491211 15.376946806907654 15.36163592338562 15.342858791351318 15.34208083152771
          15.35982370376587 15.385477066040039 15.4208402633667 15.457427620887756 15.498953461647034 15.551710724830627
          15.606167197227478 15.662464141845703 15.72634220123291 15.794884443283081 15.866543650627136 15.9385404586792
          16.012372493743896 16.0966854095459 16.18562138080597 16.277573823928833 16.372530937194824 16.47019648551941
          16.572040677070618 16.6760311126709 16.779193878173828 16.887384057044983 16.99646270275116 17.113430857658386
          33.30570650100708 33.21008372306824 33.042402267456055 32.78892540931702 32.428550243377686 31.92611050605774
          31.23673915863037 30.335516452789307 29.24586772918701 27.980881690979004 26.586127281188965 25.18541431427002
          23.867000579833984 22.652621030807495 21.558143615722656 20.685035705566406 20.22369110584259 20.16789734363556
          20.339077711105347 20.59728968143463 20.870119094848633 21.1305673122406 21.372713327407837 21.602786898612976
          21.803327560424805 21.957592248916626 22.06676411628723 22.133146047592163 22.160691499710083 22.147498846054077
          22.100078582763672 22.02227759361267 21.919358253479004 21.79921817779541 21.667369842529297 21.522850513458252
          21.37251353263855 21.209648609161377 21.032471179962158 20.842753410339355 20.633861780166626 20.414180755615234
          20.180073618888855 19.933165550231934 19.667717456817627 19.39880657196045 19.127859354019165 18.858200073242188
          18.58938193321228 18.32334303855896 18.06016445159912 17.800592184066772 17.55045521259308 17.305779457092285
          17.058480262756348 16.817848682403564 16.588547945022583 16.370886087417603 16.169026494026184 15.977687358856201
          15.796342611312866 15.621925354003906 15.454490542411804 15.29863703250885 15.157039880752563 15.034039735794067
          14.929705142974854 14.84413731098175 14.782466888427734 14.76101541519165 14.790882110595703 14.835017085075378
          14.846684336662292 14.831705212593079 14.823291063308716 14.835623741149902 14.862955212593079 14.89672327041626
          14.936256408691406 14.97957992553711 15.032895803451538 15.090855598449707 15.148437738418579 15.214247465133667
          15.285120844841003 15.358816027641296 15.432906150817871 15.510126113891602 15.595731258392334 15.686370372772217
          15.779633522033691 15.87605905532837 15.974952459335327 16.078001022338867 16.182544589042664 16.28629422187805
          16.393292665481567 16.5053813457489 16.62446141242981 16.743815064430237 31.973600387573242 31.919145584106445
          31.808854579925537 31.62504005432129 31.35125970840454 30.961690425872803 30.413031578063965 29.663997888565063
          28.70627212524414 27.56619691848755 26.252924919128418 24.851168632507324 23.48591446876526 22.217362880706787
          21.06931507587433 20.069284558296204 19.3647403717041 19.09388017654419 19.157451629638672 19.382094860076904
          19.658834218978882 19.933669090270996 20.18958842754364 20.427531719207764 20.64238131046295 20.819586634635925
          20.94738793373108 21.031054973602295 21.077133297920227 21.08380615711212 21.05417537689209 20.992207050323486
          20.905296564102173 20.798547506332397 20.67780089378357 20.54511570930481 20.40433406829834 20.25556755065918
          20.092174172401428 19.916403770446777 19.723726272583008 19.518289804458618 19.30001652240753 19.06486666202545
          18.814308404922485 18.559237718582153 18.30099856853485 18.043960571289062 17.787814140319824 17.534659266471863
          17.283655166625977 17.03727436065674 16.79992938041687 16.566474318504333 16.32956635951996 16.102136492729187
          15.8852059841156 15.681429386138916 15.492243885993958 15.31401538848877 15.145786762237549 14.984928131103516
          14.832504272460938 14.691503524780273 14.565692782402039 14.458035230636597 14.369020462036133 14.296070098876953
          14.24967873096466 14.245408177375793 14.282642483711243 14.317381978034973 14.320727944374084 14.31041944026947
          14.314468741416931 14.339563131332397 14.372814297676086 14.416814804077148 14.460246086120605 14.513953924179077
          14.575286388397217 14.634123802185059 14.701678276062012 14.774226665496826 14.85001277923584 14.926956057548523
          15.00796890258789 15.095319986343384 15.186358451843262 15.280911922454834 15.378509521484375 15.479523181915283
          15.58385157585144 15.688754677772522 15.793316841125488 15.898909568786621 16.016045570373535 16.1357342004776
          16.255793571472168 16.37796974182129 30.656840801239014 30.622095108032227 30.555530071258545 30.43113374710083
          30.230530261993408 29.934364318847656 29.511296272277832 28.912879467010498 28.10150980949402 27.092902898788452
          25.900550842285156 24.54974365234375 23.157145738601685 21.839003801345825 20.632193088531494 19.555800437927246
          18.67637813091278 18.15892457962036 18.053210735321045 18.20164716243744 18.463448524475098 18.746516466140747
          19.020752668380737 19.26973557472229 19.498227834701538 19.69471049308777 19.843960642814636 19.945635080337524
          20.008172631263733 20.03342890739441 20.022921562194824 19.97782599925995 19.906700134277344 19.813777685165405
          19.7053279876709 19.58537220954895 19.453723430633545 19.316755771636963 19.16655719280243 19.00453472137451
          18.82792854309082 18.636730194091797 18.433906316757202 18.211333394050598 17.97523534297943 17.734743118286133
          17.488747477531433 17.24429702758789 17.000215888023376 16.76043438911438 16.521496772766113 16.288138031959534
          16.063420295715332 15.83859395980835 15.61465573310852 15.399779796600342 15.19515061378479 15.005230188369751
          14.828283786773682 14.66450035572052 14.509538412094116 14.36198902130127 14.224349975585938 14.098192691802979
          13.98762333393097 13.895367622375488 13.820023536682129 13.761753678321838 13.729509115219116 13.738664865493774
          13.776370286941528 13.801449656486511 13.801130056381226 13.799087882041931 13.817178726196289 13.85207188129425
          13.895200610160828 13.941004276275635 13.994573593139648 14.058417320251465 14.118605971336365 14.186972856521606
          14.261418342590332 14.339593172073364 14.419236898422241 14.504742860794067 14.59302568435669 14.685040354728699
          14.781263828277588 14.880765080451965 14.983775854110718 15.088709115982056 15.19423794746399 15.299570560455322
          15.409191250801086 15.526461720466614 15.646963357925415 15.768492698669434 15.892812728881836 16.017678022384644
          29.35624122619629 29.336076498031616 29.29463768005371 29.21505308151245 29.075797080993652 28.858912229537964
          28.537649154663086 28.075940370559692 27.42218518257141 26.554765224456787 25.496620655059814 24.25078582763672
          22.876893758773804 21.515877723693848 20.250301122665405 19.10894250869751 18.121734619140625 17.389293551445007
          17.060919880867004 17.08218789100647 17.29287815093994 17.576892971992493 17.861576080322266 18.127283811569214
          18.370011568069458 18.58220911026001 18.756132125854492 18.87675976753235 18.955390572547913 18.997424364089966
          19.00370478630066 18.978204250335693 18.92296016216278 18.845437049865723 18.749930143356323 18.641923904418945
          18.52102279663086 18.39652395248413 18.255674362182617 18.107146382331848 17.946540117263794 17.769655227661133
          17.582043766975403 17.37258243560791 17.15099322795868 16.92432999610901 16.691163778305054 16.458758234977722
          16.227346658706665 16.000516772270203 15.77392864227295 15.553236842155457 15.340651512145996 15.124879837036133
          14.913760900497437 14.710502624511719 14.518559694290161 14.341697335243225 14.178947925567627 14.029864430427551
          13.887547731399536 13.75247049331665 13.629758715629578 13.518153190612793 13.423592567443848 13.347236037254333
          13.284269332885742 13.23951530456543 13.220725059509277 13.238820910453796 13.271960258483887 13.289219379425049
          13.290021419525146 13.300589799880981 13.331084847450256 13.37380313873291 13.421069741249084 13.47422468662262
          13.538055181503296 13.600377082824707 13.670117616653442 13.746726989746094 13.827664136886597 13.910183429718018
          13.998759269714355 14.089043855667114 14.182840704917908 14.28056263923645 14.382304787635803 14.486286044120789
          14.592742562294006 14.69955062866211 14.806122779846191 14.920741081237793 15.036296010017395 15.157777905464172
          15.282733917236328 15.408660888671875 15.532001972198486 15.646191000938416 28.06186556816101 28.062233924865723
          28.04024338722229 27.990699529647827 27.89767074584961 27.743842840194702 27.509521961212158 27.15999484062195
          26.655396699905396 25.942650318145752 25.02445363998413 23.91379976272583 22.620254516601562 21.24527132511139
          19.925087094306946 18.720622062683105 17.65665364265442 16.777101755142212 16.211949110031128 16.05490732192993
          16.169944524765015 16.42569398880005 16.718209266662598 16.997864961624146 17.256224632263184 17.48451828956604
          17.67959690093994 17.825924158096313 17.920385360717773 17.977574586868286 17.999534964561462 17.99128758907318
          17.953036308288574 17.893131017684937 17.81074619293213 17.714633464813232 17.604942798614502 17.49204921722412
          17.362658262252808 17.225433945655823 17.078855991363525 16.916953802108765 16.7445068359375 16.54882550239563
          16.34158420562744 16.12803077697754 15.907950162887573 15.687804102897644 15.469404935836792 15.253973126411438
          15.040879011154175 14.832668781280518 14.63174057006836 14.42535674571991 14.226186275482178 14.03507924079895
          13.85526990890503 13.692993760108948 13.544917583465576 13.408326029777527 13.278024673461914 13.157538414001465
          13.048588275909424 12.952573418617249 12.874285459518433 12.811182975769043 12.762022972106934 12.728619575500488
          12.721076965332031 12.74251937866211 12.76946234703064 12.782830715179443 12.790065884590149 12.81275463104248
          12.852420806884766 12.901201486587524 12.953240394592285 13.016378045082092 13.080432415008545 13.151281118392944
          13.230361938476562 13.313611030578613 13.397984623908997 13.489596366882324 13.582672595977783 13.67882788181305
          13.77829658985138 13.881761312484741 13.986640930175781 14.095292806625366 14.20393192768097 14.31618058681488
          14.432109832763672 14.546462059020996 14.670555114746094 14.797693729400635 14.924246788024902 15.044905662536621
          15.158723831176758 15.275330066680908 26.7726571559906 26.794649124145508 26.794376850128174 26.768834829330444
          26.71015167236328 26.603835105895996 26.4355149269104 26.180959701538086 25.800506114959717 25.24613380432129
          24.478812217712402 23.511605978012085 22.345005989074707 21.013134479522705 19.661295771598816 18.394120573997498
          17.254600048065186 16.278977394104004 15.528375744819641 15.141741871833801 15.122039437294006 15.308006167411804
          15.588638424873352 15.881712555885315 16.155767917633057 16.402373790740967 16.614477038383484 16.787384748458862
          16.904008865356445 16.97596287727356 17.012173414230347 17.019540905952454 16.997913479804993 16.952215433120728
          16.88650381565094 16.804036736488342 16.70663809776306 16.603795766830444 16.48761749267578 16.360629320144653
          16.226906538009644 16.07906150817871 15.920713901519775 15.740051031112671 15.546960353851318 15.346381664276123
          15.139156818389893 14.931483268737793 14.726348876953125 14.52238643169403 14.322142124176025 14.12649917602539
          13.93488323688507 13.739787817001343 13.552533507347107 13.373794555664062 13.207923412322998 13.059438467025757
          12.924948453903198 12.800514340400696 12.682417869567871 12.575582146644592 12.48129940032959 12.401587963104248
          12.338711023330688 12.288223505020142 12.25144910812378 12.228277683258057 12.230026006698608 12.248475193977356
          12.271671652793884 12.284210681915283 12.299086093902588 12.331640839576721 12.379626274108887 12.432597756385803
          12.49432635307312 12.559947967529297 12.63100814819336 12.711157202720642 12.795957565307617 12.883605003356934
          12.978162407875061 13.07480001449585 13.172825813293457 13.274270057678223 13.378700256347656 13.485796332359314
          13.59606146812439 13.707083463668823 13.824973106384277 13.942014694213867 14.058460235595703 14.184542655944824
          14.313085079193115 14.437037944793701 14.557707786560059 14.672978162765503 14.790293216705322 14.9111088514328
          25.484962701797485 25.535144805908203 25.55406951904297 25.550708770751953 25.520832061767578 25.4533634185791
          25.333892345428467 25.151158332824707 24.873661279678345 24.45701837539673 23.84897255897522 23.03203010559082
          22.01326012611389 20.79092502593994 19.447185516357422 18.127024292945862 16.919799327850342 15.85786247253418
          14.983189582824707 14.38174319267273 14.168635606765747 14.251662611961365 14.486851692199707 14.780711770057678
          15.069906234741211 15.332822799682617 15.564053058624268 15.757989525794983 15.90240752696991 15.992018580436707
          16.04305112361908 16.065279483795166 16.058825254440308 16.028510093688965 15.976916074752808 15.908369779586792
          15.823805928230286 15.73220443725586 15.628691911697388 15.513595223426819 15.390647411346436 15.256743907928467
          15.110834836959839 14.946035146713257 14.766911506652832 14.579208016395569 14.384851455688477 14.19034719467163
          13.99768352508545 13.805383682250977 13.618145942687988 13.434754133224487 13.252665400505066 13.069266557693481
          12.893579244613647 12.727708101272583 12.576416254043579 12.440719485282898 12.319007396697998 12.204997897148132
          12.099233150482178 12.006450891494751 11.927704930305481 11.864667415618896 11.815451622009277 11.7777761220932
          11.751027584075928 11.738043189048767 11.74470853805542 11.762252807617188 11.778653144836426 11.793217539787292
          11.817855834960938 11.861719608306885 11.91326367855072 11.972956895828247 12.04020881652832 12.111517429351807
          12.19178831577301 12.278878688812256 12.36963939666748 12.466779708862305 12.56620728969574 12.66512143611908
          12.768212795257568 12.87453293800354 12.983848094940186 13.095918416976929 13.213375926017761 13.333603858947754
          13.452628135681152 13.57056975364685 13.697376012802124 13.825153470039368 13.94934332370758 14.070188164710999
          14.185885310173035 14.30560576915741 14.430628657341003 14.553667783737183 24.206669807434082 24.281993627548218
          24.323451042175293 24.34013032913208 24.33198642730713 24.29668402671814 24.22051978111267 24.08802318572998
          23.889585971832275 23.585785150527954 23.127502918243408 22.46760392189026 21.60308086872101 20.528443098068237
          19.25729787349701 17.920312881469727 16.649981260299683 15.505753636360168 14.534087777137756 13.776308536529541
          13.341240882873535 13.27571427822113 13.432820916175842 13.70007610321045 13.995382308959961 14.278274536132812
          14.52661907672882 14.740883708000183 14.910830855369568 15.025080680847168 15.091986656188965 15.127877712249756
          15.137053489685059 15.122625350952148 15.083305716514587 15.028681755065918 14.956761717796326 14.875268578529358
          14.784632086753845 14.683038711547852 14.571640133857727 14.449296474456787 14.315457940101624 14.166828274726868
          14.001717567443848 13.827351212501526 13.646501541137695 13.465067625045776 13.28391981124878 13.10435676574707
          12.929489135742188 12.757705211639404 12.584304332733154 12.412903785705566 12.249666094779968 12.096701860427856
          11.95801591873169 11.834368586540222 11.72399091720581 11.620691776275635 11.530548572540283 11.452936172485352
          11.389968752861023 11.343125820159912 11.305921196937561 11.279960036277771 11.261473655700684 11.257476925849915
          11.264565467834473 11.277655243873596 11.291675567626953 11.311630129814148 11.344715118408203 11.394940972328186
          11.451473236083984 11.518805384635925 11.590224862098694 11.671285390853882 11.760003566741943 11.853835105895996
          11.954545974731445 12.057708859443665 12.15904414653778 12.262479782104492 12.36967384815216 12.480292320251465
          12.595706224441528 12.718892574310303 12.842377662658691 12.962234497070312 13.082777857780457 13.209101438522339
          13.335710525512695 13.46103286743164 13.581637382507324 13.69968831539154 13.824233651161194 13.94960331916809
          14.072630882263184 14.19133746623993 22.948057174682617 23.045936584472656 23.10354995727539 23.13824152946472
          23.151639699935913 23.138465881347656 23.09678292274475 23.010622024536133 22.86632513999939 22.649402856826782
          22.31663990020752 21.811434745788574 21.10443687438965 20.189026355743408 19.05414342880249 17.757771253585815
          16.442136526107788 15.227807641029358 14.158257484436035 13.28639280796051 12.667023181915283 12.399484395980835
          12.445983648300171 12.656458020210266 12.944026350975037 13.235356092453003 13.504566073417664 13.736087679862976
          13.92903470993042 14.071760177612305 14.157917618751526 14.208565473556519 14.231518745422363 14.233043193817139
          14.20806884765625 14.167006492614746 14.107953310012817 14.0360107421875 13.955593824386597 13.86709976196289
          13.767569541931152 13.658085703849792 13.535491943359375 13.40203058719635 13.250671625137329 13.090129494667053
          12.92331314086914 12.754929542541504 12.58604097366333 12.419301271438599 12.256292581558228 12.09337866306305
          11.930468440055847 11.770127773284912 11.61827290058136 11.477526068687439 11.352462887763977 11.241085648536682
          11.142145156860352 11.053296327590942 10.977872252464294 10.915411472320557 10.867857277393341 10.834065556526184
          10.809128403663635 10.7935289144516 10.784415245056152 10.783166885375977 10.786242127418518 10.794379234313965
          10.80980896949768 10.833749055862427 10.877982139587402 10.930083274841309 10.996506690979004 11.06801462173462
          11.149612426757812 11.239733338356018 11.335607171058655 11.439384579658508 11.547353267669678 11.650643110275269
          11.756160974502563 11.865533947944641 11.978401184082031 12.101432919502258 12.224581837654114 12.349151611328125
          12.470828652381897 12.59430742263794 12.717197060585022 12.845663070678711 12.971587777137756 13.091998219490051
          13.216706991195679 13.342697143554688 13.468701362609863 13.589005708694458 13.704057574272156 13.81888234615326
          21.751532316207886 21.83018970489502 21.906542539596558 21.950074553489685 21.97936511039734 21.988126516342163
          21.969924688339233 21.921297073364258 21.825170636177063 21.668402194976807 21.430752754211426 21.063688278198242
          20.510591745376587 19.759511947631836 18.787529945373535 17.600185871124268 16.29023313522339 15.015742301940918
          13.859668970108032 12.881993532180786 12.12701153755188 11.658724784851074 11.541635274887085 11.669817924499512
          11.922354221343994 12.213059306144714 12.49416720867157 12.745858788490295 12.95954716205597 13.128599166870117
          13.241353034973145 13.307023406028748 13.343984365463257 13.358891010284424 13.350802898406982 13.322251319885254
          13.276866436004639 13.216661095619202 13.144981265068054 13.068067789077759 12.979825019836426 12.88178277015686
          12.770604252815247 12.649448275566101 12.512863159179688 12.366165161132812 12.212847113609314 12.05789577960968
          11.901488780975342 11.747716307640076 11.596816897392273 11.444015979766846 11.291644096374512 11.142680644989014
          11.001924276351929 10.873616814613342 10.762650787830353 10.663927555084229 10.576860308647156 10.502137243747711
          10.440829277038574 10.392730355262756 10.359814286231995 10.337514400482178 10.325759887695312 10.31898719072342
          10.31615126132965 10.312879085540771 10.30827409029007 10.313041090965271 10.330922245979309 10.36268413066864
          10.410743117332458 10.473885715007782 10.54480117559433 10.62681770324707 10.717589616775513 10.815566837787628
          10.922064900398254 11.033326387405396 11.140233993530273 11.248412132263184 11.36018717288971 11.478087425231934
          11.606761455535889 11.732194423675537 11.857112407684326 11.979290962219238 12.103345394134521 12.226705551147461
          12.354360103607178 12.480344295501709 12.607184410095215 12.734386801719666 12.8609037399292 12.98529863357544
          13.1010502576828 13.216818928718567 13.335932731628418 13.459270715713501 20.64254128932953 20.66845440864563
          20.734156250953674 20.788822889328003 20.821836352348328 20.846380472183228 20.849714279174805 20.826396346092224
          20.77041745185852 20.664841413497925 20.494100332260132 20.23275125026703 19.826278924942017 19.228861331939697
          18.42834174633026 17.398165106773376 16.169633388519287 14.866835713386536 13.639550685882568 12.556105732917786
          11.684614300727844 11.058965802192688 10.749442219734192 10.751034617424011 10.943902730941772 11.218093633651733
          11.505172848701477 11.770888328552246 12.00381588935852 12.194955825805664 12.33739709854126 12.423086285591125
          12.475193977355957 12.50319492816925 12.510132312774658 12.49517810344696 12.46198844909668 12.414410591125488
          12.353694081306458 12.287546277046204 12.211045384407043 12.121654391288757 12.021703720092773 11.912556171417236
          11.790384769439697 11.656888961791992 11.517142176628113 11.374761581420898 11.23220956325531 11.092057943344116
          10.952112793922424 10.810738623142242 10.669553399085999 10.532084345817566 10.403336882591248 10.288860499858856
          10.189122259616852 10.101815700531006 10.026567816734314 9.965648472309113 9.918060302734375 9.884653151035309
          9.865365445613861 9.856520295143127 9.853674173355103 9.854238629341125 9.85359537601471 9.842447459697723
          9.829108536243439 9.832911670207977 9.855627536773682 9.895843505859375 9.951708316802979 10.02082872390747
          10.102060616016388 10.193506836891174 10.294027030467987 10.403561115264893 10.517005443572998 10.628665447235107
          10.740902781486511 10.856901288032532 10.981706202030182 11.111284255981445 11.239648580551147 11.365937232971191
          11.489827632904053 11.612372875213623 11.73564898967743 11.861485123634338 11.992414474487305 12.123510718345642
          12.252244353294373 12.37864899635315 12.497160911560059 12.61467981338501 12.732669591903687 12.85626220703125
          12.978671789169312 13.101113319396973 19.614704132080078 19.584214210510254 19.609246492385864 19.65903353691101
          19.69393515586853 19.71784019470215 19.737724542617798 19.73643970489502 19.70787215232849 19.64451014995575
          19.52850341796875 19.342382311820984 19.0526020526886 18.603529691696167 17.964948654174805 17.110580444335938
          16.026116371154785 14.76406991481781 13.488117814064026 12.313539028167725 11.323481440544128 10.570213437080383
          10.086928129196167 9.92085075378418 10.01789402961731 10.255866408348083 10.538881719112396 10.81649136543274
          11.067023873329163 11.276575088500977 11.444321632385254 11.556149244308472 11.624767422676086 11.666783928871155
          11.685861349105835 11.686299204826355 11.664772391319275 11.629960060119629 11.581009864807129 11.524999499320984
          11.460020542144775 11.380063533782959 11.289762377738953 11.194014310836792 11.085934281349182 10.965579748153687
          10.838816344738007 10.708824336528778 10.58035534620285 10.453612208366394 10.325140953063965 10.195180535316467