<VTKFile type="PolyData" version="1.0" byte_order="LittleEndian" header_type="UInt64">
  <PolyData>
    <Piece NumberOfPoints="10000" NumberOfVerts="0" NumberOfLines="0" NumberOfStrips="0" NumberOfPolys="9801">
      <PointData>
        <DataArray type="Float32" Name="zvalue" NumberOfComponents="1" format="ascii" RangeMin="0.603514838963747" RangeMax="2.263039290904999">
          0.650812666863203 0.6509489007294178 0.6511989496648312 0.6515911743044853 0.6522416658699512 0.653304748237133
          0.654787577688694 0.656733263283968 0.6590131781995296 0.6615150757133961 0.6642742455005646 0.6673566214740276
          0.6709472090005875 0.6751313470304012 0.6800783649086952 0.6858388818800449 0.6920557916164398 0.6983769312500954
          0.7046643458306789 0.7107312381267548 0.7164813242852688 0.7221596017479897 0.7278596684336662 0.733740720897913
          0.7396813631057739 0.7456553019583225 0.7516902163624763 0.7576194629073143 0.7633492462337017 0.7686843983829021
          0.7735829018056393 0.7779077850282192 0.7816722579300404 0.7850885577499866 0.788328479975462 0.7915232554078102
          0.7946418561041355 0.7978249825537205 0.8011294491589069 0.8045276217162609 0.807956624776125 0.8112755082547665
          0.814416516572237 0.8172973208129406 0.8198798969388008 0.8221463151276112 0.8240760900080204 0.825695488601923
          0.8270647674798965 0.8282536789774895 0.8292839303612709 0.8303697109222412 0.8315544202923775 0.8327718116343021
          0.8339750021696091 0.8352019339799881 0.8362640291452408 0.8370460867881775 0.8374567069113255 0.8374038152396679
          0.836908720433712 0.8360734507441521 0.8350084349513054 0.8336155116558075 0.8320127427577972 0.8304350078105927
          0.8288538157939911 0.8273921459913254 0.8260460793972015 0.824846513569355 0.8234730884432793 0.8217276707291603
          0.8195000626146793 0.8168235458433628 0.8135057911276817 0.8094777129590511 0.8048912771046162 0.8006126582622528
          0.7970636673271656 0.7939167246222496 0.7909418568015099 0.7878545187413692 0.7846436090767384 0.7813417091965675
          0.7779886052012444 0.7745482660830021 0.7709647789597511 0.7672942318022251 0.7635989300906658 0.7600372955203056
          0.7565633207559586 0.7531404122710228 0.7497435696423054 0.7463664710521698 0.7429450899362564 0.7394829615950584
          0.7360372506082058 0.732717365026474 0.7294743098318577 0.726336020976305 0.6431516297161579 0.6430980525910854
          0.6436371952295303 0.6448553204536438 0.6465969048440456 0.648694958537817 0.6510463766753674 0.653666764497757
          0.6565730981528759 0.6597112230956554 0.6630088947713375 0.666465986520052 0.6702122837305069 0.6744673810899258
          0.6794513873755932 0.6852077096700668 0.6915341019630432 0.698092844337225 0.704644463956356 0.7111771665513515
          0.717476025223732 0.723633661866188 0.7296768426895142 0.7358760796487331 0.7422869130969048 0.7487839311361313
          0.755242045968771 0.7615256160497665 0.7675618082284927 0.773230541497469 0.7782773673534393 0.7825471758842468
          0.7861152738332748 0.7892567925155163 0.7922651059925556 0.795338049530983 0.7984416000545025 0.801539059728384
          0.8046807646751404 0.8078836426138878 0.8111297115683556 0.8143231421709061 0.8173371441662312 0.8200332932174206
          0.822381068021059 0.8244271762669086 0.8261573761701584 0.8276392035186291 0.8288780711591244 0.8299759365618229
          0.8310686834156513 0.8322649896144867 0.8336968906223774 0.8353731743991375 0.8371256627142429 0.8389590755105019
          0.8407735377550125 0.842177826911211 0.8430288136005402 0.8434004224836826 0.8432799242436886 0.8427073024213314
          0.8417724557220936 0.840470977127552 0.8388440497219563 0.83710066229105 0.8351975902915001 0.8332112841308117
          0.8311645574867725 0.8291013278067112 0.8269533552229404 0.8245956748723984 0.8218787983059883 0.8188621737062931
          0.8155307993292809 0.8120170310139656 0.8085629269480705 0.8052172027528286 0.8020712360739708 0.7990721091628075
          0.7960945479571819 0.7929062098264694 0.7895489223301411 0.786105290055275 0.7826045453548431 0.7790717408061028
          0.7754333093762398 0.7716321274638176 0.7678010985255241 0.7640571631491184 0.7604225762188435 0.756888747215271
          0.7534060999751091 0.7498789280653 0.7463230341672897 0.7427596636116505 0.7393021136522293 0.7358916997909546
          0.7325365394353867 0.7292808517813683 0.6358927525579929 0.6365497969090939 0.6379717290401459 0.6399955600500107
          0.6423343382775784 0.6448776200413704 0.6475995108485222 0.650583803653717 0.6538553535938263 0.6574092023074627
          0.6612098515033722 0.6651419065892696 0.6692113652825356 0.6735576130449772 0.6784775927662849 0.684082143008709
          0.6903706826269627 0.6969490312039852 0.7035586722195148 0.7102483101189137 0.7168745175004005 0.7233979925513268
          0.7296524867415428 0.7359559610486031 0.7426427826285362 0.7496387138962746 0.7567400932312012 0.763627078384161
          0.770247396081686 0.7764263600111008 0.7819913290441036 0.7868136055767536 0.7908191233873367 0.7941470146179199
          0.7970686741173267 0.8000507354736328 0.8031361140310764 0.8061973117291927 0.8091176375746727 0.8119942285120487
          0.8149630837142467 0.8179072700440884 0.8206295259296894 0.8229559548199177 0.8248967416584492 0.826406966894865
          0.8276109993457794 0.8286852762103081 0.8297883495688438 0.8309559226036072 0.8321808949112892 0.8335535451769829
          0.8352687060832977 0.8372780084609985 0.8395078927278519 0.8418446592986584 0.8442528545856476 0.8465866073966026
          0.8483422473073006 0.8494082614779472 0.8499003984034061 0.849631704390049 0.8487435542047024 0.8474542535841465
          0.845794852823019 0.8439358361065388 0.8418871723115444 0.839650422334671 0.8373384810984135 0.8349157683551311
          0.8324210308492184 0.8297556899487972 0.8268726505339146 0.8239152953028679 0.8208559565246105 0.8177656307816505
          0.8146076649427414 0.8112857006490231 0.8079567514359951 0.8047081083059311 0.8015406616032124 0.7982315346598625
          0.7947636358439922 0.7911950275301933 0.7875760458409786 0.783951111137867 0.7802070714533329 0.7762603685259819
          0.7723108865320683 0.7684015110135078 0.7645786479115486 0.760885801166296 0.7572969384491444 0.7537628337740898
          0.7500991746783257 0.746425524353981 0.7428448051214218 0.7392455376684666 0.7357559576630592 0.7323812507092953
          0.6306701377034187 0.6319464147090912 0.6337664499878883 0.6360251978039742 0.6385275386273861 0.6412229649722576
          0.6442440785467625 0.6476233266294003 0.6512256488204002 0.6549971587955952 0.6589846946299076 0.6632157638669014
          0.6675363108515739 0.6719921603798866 0.6767655424773693 0.6820383109152317 0.6879689395427704 0.6944578029215336
          0.7011151313781738 0.7078582011163235 0.7146494649350643 0.7215153463184834 0.7281528450548649 0.7345769442617893
          0.7413914874196053 0.7486467473208904 0.756170529872179 0.7637208178639412 0.7709697969257832 0.7777605280280113
          0.7839557118713856 0.7895080484449863 0.794131301343441 0.7978708297014236 0.8009477369487286 0.8036498464643955
          0.8063814975321293 0.8091331943869591 0.8118649385869503 0.8145633190870285 0.8171225115656853 0.8196489587426186
          0.822128489613533 0.824407733976841 0.8263633549213409 0.827942743897438 0.8291785046458244 0.8300904184579849
          0.8307825215160847 0.8315504416823387 0.8325316794216633 0.8340345099568367 0.8360664062201977 0.8385364003479481
          0.8414728157222271 0.8444259911775589 0.8471645303070545 0.8500607348978519 0.8527992628514767 0.8550195619463921
          0.8564133197069168 0.8567120283842087 0.8560230173170567 0.8547202795743942 0.8529943376779556 0.8510515242815018
          0.8489288538694382 0.8466362804174423 0.844266626983881 0.8417507223784924 0.8392051234841347 0.8365217037498951
          0.8336739279329777 0.830765038728714 0.8277501463890076 0.8246464394032955 0.8214154727756977 0.81797881051898
          0.8144845105707645 0.8110440075397491 0.807603981345892 0.8040016926825047 0.8004475235939026 0.7967853546142578
          0.7930431738495827 0.7892410643398762 0.7853009253740311 0.7812193594872952 0.7771209888160229 0.7730911858379841
          0.7691784426569939 0.7653711661696434 0.7616814337670803 0.7580085247755051 0.754178810864687 0.7503810860216618
          0.7465853169560432 0.7427927516400814 0.7391459457576275 0.7356372848153114 0.6266234777867794 0.6282455772161484
          0.6302636563777924 0.6325866840779781 0.635124608874321 0.6380409374833107 0.641447376459837 0.6451562903821468
          0.6489020101726055 0.6526564210653305 0.6565193943679333 0.6606369540095329 0.6650205701589584 0.6694732643663883
          0.6740816384553909 0.6789686791598797 0.6845146343111992 0.6907083131372929 0.6972942166030407 0.7040932364761829
          0.7110142260789871 0.7180792540311813 0.7251711040735245 0.7318880707025528 0.7388268373906612 0.7462454997003078
          0.7540305219590664 0.7620122283697128 0.7699262946844101 0.7773773707449436 0.7842472270131111 0.7904494032263756
          0.7958491183817387 0.8002409897744656 0.8036734722554684 0.8062938340008259 0.8084322363138199 0.8109152354300022
          0.8135769553482533 0.8161964453756809 0.8187218271195889 0.821161899715662 0.823605515062809 0.8259421102702618
          0.8280645832419395 0.8298423737287521 0.8312143534421921 0.8322660028934479 0.8330998234450817 0.8338497877120972
          0.8345741368830204 0.8355780765414238 0.8371472284197807 0.8395696580410004 0.8429284915328026 0.8466590754687786
          0.8501636311411858 0.853387676179409 0.8567694909870625 0.8599938824772835 0.8625357523560524 0.8637973442673683
          0.8637179881334305 0.862564567476511 0.8608180582523346 0.8587528243660927 0.8565817885100842 0.8542884364724159
          0.8519285917282104 0.8494175262749195 0.8468444049358368 0.8441508822143078 0.8413081131875515 0.8383850902318954
          0.8353291042149067 0.8321109488606453 0.8287062235176563 0.8251180127263069 0.821473702788353 0.8178553581237793
          0.8142310827970505 0.8104326091706753 0.8066711276769638 0.8029033839702606 0.7989980019629002 0.7949981279671192
          0.7908855639398098 0.786746621131897 0.782621655613184 0.7785215079784393 0.7744185477495193 0.7703815922141075
          0.7664800211787224 0.762599304318428 0.7586529925465584 0.7546668313443661 0.7506544217467308 0.7466757446527481
          0.7428592778742313 0.7392016090452671 0.6231991164386272 0.6255796439945698 0.6280367486178875 0.6305483058094978
          0.6332721561193466 0.636323869228363 0.6396096833050251 0.6430987864732742 0.6466583460569382 0.6502577550709248
          0.6539642326533794 0.6578866466879845 0.6620080545544624 0.666231244802475 0.6706575304269791 0.6753477938473225
          0.68058205768466 0.6864523403346539 0.6927889958024025 0.6994652822613716 0.7064017057418823 0.7135633789002895
          0.720965076237917 0.7281928025186062 0.7354285456240177 0.7431573271751404 0.7511825636029243 0.7593805603682995
          0.767657931894064 0.7758032009005547 0.7834657169878483 0.7905058190226555 0.7969521544873714 0.8026278577744961
          0.8070747219026089 0.810064397752285 0.8120931871235371 0.8139343336224556 0.8161657117307186 0.8186316378414631
          0.8211486302316189 0.8236595317721367 0.8261140510439873 0.828639954328537 0.8309751860797405 0.8329973816871643
          0.8346639759838581 0.8359240107238293 0.8369187377393246 0.8377348072826862 0.8385167643427849 0.8395147323608398
          0.840840507298708 0.842646848410368 0.8452905490994453 0.8491100892424583 0.8534100316464901 0.857174351811409
          0.860900517553091 0.8646816313266754 0.8682662099599838 0.8707572519779205 0.8716653287410736 0.8710356764495373
          0.8694068528711796 0.8672699965536594 0.8649585507810116 0.8626679517328739 0.8603230342268944 0.8578174933791161
          0.8552006557583809 0.8524113819003105 0.8494950383901596 0.8465241454541683 0.8434239439666271 0.8401223421096802
          0.8365623839199543 0.8327972665429115 0.8289532586932182 0.825160700827837 0.8213780149817467 0.8173928633332253
          0.8134020045399666 0.8094633296132088 0.8054504431784153 0.801307238638401 0.7971515953540802 0.7929577864706516
          0.7886806987226009 0.7843952998518944 0.7800990454852581 0.7758387736976147 0.7716334350407124 0.7675321884453297
          0.7633991055190563 0.7591533064842224 0.7549677155911922 0.7508352771401405 0.7468342036008835 0.7429920360445976
          0.6209562495350838 0.6229059621691704 0.6253536082804203 0.6283609718084335 0.6317837424576283 0.6353149376809597
          0.6385563015937805 0.6414986774325371 0.6446299329400063 0.6479525826871395 0.6514110714197159 0.655070498585701
          0.6589024253189564 0.662888940423727 0.6670868881046772 0.6716167479753494 0.6766459420323372 0.6822846122086048
          0.6883560828864574 0.694735337048769 0.7014866732060909 0.7085590250790119 0.7162020951509476 0.724142711609602
          0.731747318059206 0.7398042976856232 0.7481167949736118 0.7564882449805737 0.7649953663349152 0.7734671868383884
          0.7817236222326756 0.7896450981497765 0.797051228582859 0.8037381395697594 0.8094877302646637 0.8139267340302467
          0.8170664235949516 0.8188602775335312 0.8200954496860504 0.8219497948884964 0.8243043683469296 0.8268641047179699
          0.8294421546161175 0.8320305645465851 0.8345511518418789 0.8368247859179974 0.8388108797371387 0.8404659330844879
          0.8418260402977467 0.8429800309240818 0.8439676947891712 0.8449189551174641 0.8462238535284996 0.8481691367924213
          0.8505467958748341 0.8536508046090603 0.8577745594084263 0.8620584048330784 0.865796159952879 0.8697149232029915
          0.8739962950348854 0.8777167312800884 0.8798344284296036 0.8800839185714722 0.8787801750004292 0.8766933307051659
          0.8743122108280659 0.8718914464116096 0.8694764226675034 0.8669605068862438 0.8642928153276443 0.8613665252923965
          0.8583247363567352 0.8552422784268856 0.8520522601902485 0.8486326225101948 0.8449965827167034 0.8411414325237274
          0.8371205292642117 0.83305474370718 0.8289999142289162 0.8248426951467991 0.8207517378032207 0.8167042322456837
          0.812580544501543 0.8082746528089046 0.8039518892765045 0.7995661608874798 0.7951188609004021 0.7906182929873466
          0.7861294969916344 0.7816256769001484 0.7771917171776295 0.7728264220058918 0.768379308283329 0.7639066763222218
          0.7595484293997288 0.7552615664899349 0.7510866075754166 0.7470370531082153 0.6184995323419571 0.620298944413662
          0.6228009015321732 0.6261133663356304 0.6300845257937908 0.6340560279786587 0.6373541355133057 0.6400428488850594
          0.6427414417266846 0.6456489562988281 0.6487809680402279 0.652146466076374 0.6557483412325382 0.6595812886953354
          0.6636876985430717 0.6681218296289444 0.6730881631374359 0.6785338930785656 0.6844070702791214 0.6904911994934082
          0.6969260610640049 0.7039584927260876 0.7117180041968822 0.7203033342957497 0.7285164296627045 0.7366668246686459
          0.7451585307717323 0.7537523433566093 0.7623183615505695 0.7709365487098694 0.779573779553175 0.7881397269666195
          0.7961344569921494 0.8035658523440361 0.8104246184229851 0.8164648301899433 0.8214120604097843 0.824511680752039
          0.8262510746717453 0.8270888589322567 0.8284199722111225 0.8306946866214275 0.8332803398370743 0.8359060734510422
          0.838517140597105 0.840966884046793 0.8431964069604874 0.8451951816678047 0.8470421209931374 0.8487451858818531
          0.8502888567745686 0.8515944965183735 0.8528470546007156 0.8546682372689247 0.8575388230383396 0.8608385287225246
          0.8646276742219925 0.8688003867864609 0.8724096417427063 0.8760225847363472 0.8805051557719707 0.8851457685232162
          0.8884789161384106 0.8897268399596214 0.8889835551381111 0.887017734348774 0.8846214860677719 0.8821016624569893
          0.8795310854911804 0.8768925331532955 0.8741285316646099 0.8711124993860722 0.8679027631878853 0.864669669419527
          0.8613547943532467 0.857810415327549 0.8540886081755161 0.8501208685338497 0.8458881229162216 0.8416580818593502
          0.837460495531559 0.8331449292600155 0.8288734555244446 0.8246273435652256 0.8202374093234539 0.8157200366258621
          0.8111644834280014 0.8065888471901417 0.801939632743597 0.7972324788570404 0.7924939841032028 0.7877815328538418
          0.7831589877605438 0.7785139121115208 0.7737691290676594 0.7690366357564926 0.7644331231713295 0.7599570341408253
          0.7556023001670837 0.751358937472105 0.6169692799448967 0.6188046708703041 0.6211691424250603 0.6242996528744698
          0.6280783638358116 0.6321462094783783 0.6356006599962711 0.6381055414676666 0.640450656414032 0.6429592818021774
          0.6457166075706482 0.6488132812082767 0.6523046270012856 0.6561545133590698 0.6603986956179142 0.6650386452674866
          0.670122142881155 0.6755945570766926 0.6814162246882915 0.6875454410910606 0.6939404457807541 0.7009175084531307
          0.7087183967232704 0.7175171859562397 0.7263913750648499 0.734363105148077 0.7426600717008114 0.7512834556400776
          0.7600259110331535 0.7687815800309181 0.7776070833206177 0.7864784598350525 0.7948052436113358 0.8025899678468704
          0.8099990971386433 0.8171275705099106 0.8238100558519363 0.8287985324859619 0.8320294506847858 0.8337850607931614
          0.834641583263874 0.835512787103653 0.8374006152153015 0.8399078361690044 0.8426348343491554 0.845270175486803
          0.8477378226816654 0.8499939069151878 0.8522071279585361 0.854449599981308 0.8566193506121635 0.8586221896111965
          0.8604714721441269 0.8623252548277378 0.8651572503149509 0.8693518042564392 0.873628705739975 0.8778916597366333
          0.8814031220972538 0.8844348676502705 0.8886305764317513 0.893638126552105 0.8979143872857094 0.9000742360949516
          0.8999887369573116 0.8982360884547234 0.8957891948521137 0.893136776983738 0.8903796672821045 0.8875492550432682
          0.8846318982541561 0.881524283438921 0.878234151750803 0.8749017417430878 0.8714631870388985 0.86775978282094
          0.8638964593410492 0.8598250895738602 0.8554658778011799 0.8510396108031273 0.8466613031923771 0.8421986550092697
          0.8377016000449657 0.8331794440746307 0.8284899443387985 0.8236730843782425 0.8188484907150269 0.8140222206711769
          0.8091570883989334 0.8041916340589523 0.7992277070879936 0.7943253479897976 0.7894528619945049 0.7844768464565277
          0.7794826813042164 0.7745211198925972 0.7696716226637363 0.7649510987102985 0.7603704109787941 0.7559187971055508
          0.6169387474656105 0.6187476515769958 0.6208186969161034 0.6233900710940361 0.6263778582215309 0.6297014467418194
          0.6326468698680401 0.6350693628191948 0.6372065283358097 0.6392488777637482 0.6414952538907528 0.6442129164934158
          0.6474965885281563 0.6513544134795666 0.6558973379433155 0.6611422933638096 0.6670838333666325 0.6734834350645542
          0.6800472103059292 0.6867973506450653 0.6937328204512596 0.7009260393679142 0.7086735144257545 0.7172237783670425
          0.7262315675616264 0.7340049296617508 0.7415524609386921 0.7497534677386284 0.758399847894907 0.7672792673110962
          0.7762631215155125 0.7852268889546394 0.7935308516025543 0.8013132177293301 0.8089041411876678 0.8164208345115185
          0.8239556029438972 0.8308373615145683 0.8360058329999447 0.8392909653484821 0.8411916196346283 0.8421321623027325
          0.8427661806344986 0.8441706895828247 0.8466029427945614 0.8493397124111652 0.8520311936736107 0.8546688742935658
          0.8572399988770485 0.8599448278546333 0.8627578876912594 0.8654894717037678 0.8681599386036396 0.8708796836435795
          0.8738741464912891 0.878164928406477 0.8836664594709873 0.8884718716144562 0.8924316838383675 0.8952401019632816
          0.8989479094743729 0.9038630425930023 0.9085487611591816 0.9113317355513573 0.9116845764219761 0.9101693443953991
          0.9076813571155071 0.9048572331666946 0.9019513987004757 0.8989763855934143 0.8958897888660431 0.8926818072795868
          0.8893768452107906 0.8859888575971127 0.8824128210544586 0.8786063194274902 0.8746091723442078 0.8703254237771034
          0.8657811731100082 0.861125398427248 0.8564608581364155 0.85178067907691 0.8470736108720303 0.8422371633350849
          0.8372415937483311 0.8321656733751297 0.8270777016878128 0.82199527323246 0.8168041668832302 0.8115594834089279
          0.8063430562615395 0.8012353554368019 0.7960320599377155 0.7907611131668091 0.7855224572122097 0.7803225815296173
          0.7752109207212925 0.7702399715781212 0.7654231525957584 0.7607627175748348 0.6177468411624432 0.6196012645959854
          0.6213017255067825 0.6233114451169968 0.6254363507032394 0.6274327524006367 0.6298437640070915 0.6324172951281071
          0.6350939609110355 0.6375361643731594 0.6397122889757156 0.6416946426033974 0.6441715843975544 0.6478079594671726
          0.6524319723248482 0.6578113175928593 0.6640052124857903 0.6713410429656506 0.6796781048178673 0.6876645088195801
          0.6953026540577412 0.7031369023025036 0.7109831683337688 0.719133622944355 0.7277791388332844 0.7357673533260822
          0.7423853054642677 0.74914825335145 0.756868589669466 0.7660370729863644 0.7754947021603584 0.7847016714513302
          0.7930248975753784 0.8008462302386761 0.8083731792867184 0.8158069364726543 0.8234110474586487 0.8311569504439831
          0.8381322696805 0.843207735568285 0.8463626131415367 0.8483310453593731 0.8494383431971073 0.8501381129026413
          0.8511458113789558 0.8532538339495659 0.8560552410781384 0.8589354567229748 0.8619003035128117 0.8650939166545868
          0.8684637919068336 0.871991440653801 0.8755468986928463 0.8792062886059284 0.8831392787396908 0.887526098638773
          0.8936136662960052 0.8997242785990238 0.9045109674334526 0.907891284674406 0.9114406630396843 0.9163352996110916
          0.9211252294480801 0.923975445330143 0.9243511632084846 0.9228033870458603 0.9201898500323296 0.9171965941786766
          0.9141606651246548 0.9111772999167442 0.9080981574952602 0.9048595875501633 0.9015441425144672 0.8980939872562885
          0.8943544030189514 0.8904052563011646 0.88618253916502 0.881620567291975 0.8768255971372128 0.8718832843005657
          0.8669043332338333 0.8619602061808109 0.8569167740643024 0.8517502956092358 0.8465050756931305 0.841155581176281
          0.8357858993113041 0.8303919285535812 0.8249314166605473 0.8194323293864727 0.8140048943459988 0.8085588626563549
          0.802972387522459 0.797388169914484 0.7918736115098 0.7864102348685265 0.7810461707413197 0.775839164853096
          0.7708079665899277 0.7659382484853268 0.6172193214297295 0.6198805049061775 0.6218916028738022 0.6233529597520828
          0.624943196773529 0.6266842670738697 0.6283515579998493 0.6309039890766144 0.6343764513731003 0.637886568903923
          0.6407542787492275 0.6434830017387867 0.6450437754392624 0.6461722515523434 0.6503621824085712 0.656208511441946
          0.6628276817500591 0.6704699918627739 0.6795911379158497 0.689120952039957 0.6976499669253826 0.7060561552643776
          0.7145621255040169 0.722321305423975 0.7290908955037594 0.7360630296170712 0.7431902848184109 0.750830914825201
          0.7580621875822544 0.7659093625843525 0.7753885351121426 0.7849561683833599 0.7935304045677185 0.8014080971479416
          0.8089139722287655 0.8162748999893665 0.8237852975726128 0.8316000998020172 0.8393517695367336 0.8461141400039196
          0.850814875215292 0.8537093997001648 0.8556219302117825 0.8569293431937695 0.857581052929163 0.8583632670342922
          0.860341627150774 0.8632166683673859 0.8665005601942539 0.8701253347098827 0.8740458004176617 0.8781778328120708
          0.8825843706727028 0.8871841467916965 0.8919449001550674 0.8971103318035603 0.9031267873942852 0.9108319617807865
          0.9170199558138847 0.9217379614710808 0.9257369749248028 0.9310745112597942 0.9358910918235779 0.9382927976548672
          0.9382017329335213 0.936313409358263 0.9334322661161423 0.930195014923811 0.9270432963967323 0.9240853041410446
          0.9211838990449905 0.9181654825806618 0.9149219281971455 0.9113738872110844 0.9074120633304119 0.9030817151069641
          0.8985605612397194 0.8937458246946335 0.8886951319873333 0.8834403306245804 0.8781355805695057 0.8728364408016205
          0.8673832826316357 0.8618658371269703 0.856282040476799 0.8506330363452435 0.8449547998607159 0.8392300717532635
          0.8334436640143394 0.8277059495449066 0.8220411390066147 0.8162383437156677 0.8103318884968758 0.8044558018445969
          0.7986447364091873 0.7929136119782925 0.7872715778648853 0.7817896977066994 0.7764965929090977 0.7713753581047058
          0.6137300953269005 0.6180691979825497 0.6214587166905403 0.6234557330608368 0.6245253086090088 0.626155462116003
          0.6283308789134026 0.6308571174740791 0.6340422332286835 0.6375032477080822 0.6407574601471424 0.6437398009002209
          0.6471315920352936 0.6497950367629528 0.6503681503236294 0.6553873606026173 0.6626474261283875 0.6709866002202034
          0.6807830221951008 0.6912258081138134 0.7005963698029518 0.7096964009106159 0.7179856076836586 0.7240616977214813
          0.730707187205553 0.73912613093853 0.7475694082677364 0.7550126165151596 0.7623902224004269 0.76895896717906
          0.7767160013318062 0.7859186008572578 0.7948103472590446 0.8028909265995026 0.8105824813246727 0.8180863298475742
          0.8256499841809273 0.8334460854530334 0.8414074592292309 0.8488259501755238 0.8549661561846733 0.8591468147933483
          0.8617128357291222 0.863522294908762 0.8647852465510368 0.8654809966683388 0.8662966452538967 0.8683805391192436
          0.8716658428311348 0.8755610957741737 0.8799748308956623 0.8846766129136086 0.8896572478115559 0.8949665874242783
          0.9004479274153709 0.9062011241912842 0.9126205071806908 0.9208276309072971 0.9295644462108612 0.9361876659095287
          0.9415349625051022 0.9476123824715614 0.9522821828722954 0.9539970122277737 0.9533144608139992 0.9509575627744198
          0.9477029331028461 0.9441306665539742 0.9408195056021214 0.9378400482237339 0.9350863136351109 0.9322973899543285
          0.9292060732841492 0.9256534986197948 0.9215741753578186 0.9169966988265514 0.9120275601744652 0.9067285470664501
          0.9013421908020973 0.8958009891211987 0.8901594989001751 0.8844879567623138 0.8786514326930046 0.8727754205465317
          0.8668178096413612 0.8607641719281673 0.8547381460666656 0.8487160913646221 0.8426252380013466 0.8365559317171574
          0.8304428346455097 0.8242367058992386 0.8180379346013069 0.8118947632610798 0.8058065101504326 0.7998170740902424
          0.7939207069575787 0.7881544716656208 0.7825245149433613 0.7770475968718529 0.6101533658802509 0.6129523180425167
          0.6182249747216702 0.6220457777380943 0.6241128258407116 0.6259815692901611 0.62950025126338 0.6325295008718967
          0.6342378109693527 0.6361767426133156 0.6391667984426022 0.6425851061940193 0.6464759483933449 0.6507893539965153
          0.6541754081845284 0.6557016111910343 0.66237872838974 0.6716147996485233 0.6823936179280281 0.6933872625231743
          0.7036220617592335 0.7130274623632431 0.7193147242069244 0.7269257418811321 0.7357474751770496 0.7442932017147541
          0.7526081651449203 0.7596272304654121 0.7665149196982384 0.7736483663320541 0.7799298241734505 0.7872864827513695
          0.7961853891611099 0.804724145680666 0.8128796145319939 0.8207303024828434 0.8285474628210068 0.8364911861717701
          0.844618272036314 0.852570042014122 0.8594369702041149 0.8647858276963234 0.8684623725712299 0.8707718066871166
          0.872409176081419 0.8735332787036896 0.8743545040488243 0.8754936009645462 0.878172479569912 0.8821812309324741
          0.8869942277669907 0.8922614715993404 0.8977400548756123 0.9034737199544907 0.9094006009399891 0.9155169315636158
          0.9223772287368774 0.9307475052773952 0.9418862387537956 0.9509436748921871 0.9583161771297455 0.9647683203220367
          0.9691180400550365 0.9704497419297695 0.969357505440712 0.966561783105135 0.9629836194217205 0.9591507650911808
          0.9556014612317085 0.9524878077208996 0.9497353248298168 0.9470690228044987 0.9441698379814625 0.9407233260571957
          0.9366703815758228 0.9318931065499783 0.9265590384602547 0.9208587035536766 0.9149582721292973 0.9089137203991413
          0.9029065072536469 0.8968489542603493 0.8906531594693661 0.8843713589012623 0.8779473267495632 0.8715107217431068
          0.8651387169957161 0.8587724827229977 0.8523977659642696 0.8460139594972134 0.8395471982657909 0.8329632878303528
          0.8264135643839836 0.8199474811553955 0.8135406225919724 0.8072342127561569 0.8010432422161102 0.7949950583279133
          0.7890288904309273 0.7832364775240421 0.6069627515971661 0.6087970919907093 0.6110648512840271 0.6171144656836987
          0.6232045218348503 0.6286934055387974 0.6316529810428619 0.6337607502937317 0.6350518129765987 0.6358395256102085
          0.6373356468975544 0.6403872147202492 0.6443139240145683 0.6497360020875931 0.6551621742546558 0.6589837297797203
          0.6623664386570454 0.6720172092318535 0.6832263730466366 0.694292850792408 0.7052664496004581 0.7144512794911861
          0.7212604619562626 0.7303924821317196 0.7410964369773865 0.7502634972333908 0.7583699002861977 0.7653909549117088
          0.7719285227358341 0.7792424745857716 0.786017257720232 0.7910671904683113 0.7981710769236088 0.8066130205988884
          0.8149796389043331 0.823449719697237 0.8317602090537548 0.8400150537490845 0.8483417183160782 0.8567124307155609