<VTKFile type="PolyData" version="1.0" byte_order="LittleEndian" header_type="UInt64">
  <PolyData>
    <Piece NumberOfPoints="10000" NumberOfVerts="0" NumberOfLines="0" NumberOfStrips="0" NumberOfPolys="9801">
      <PointData>
        <DataArray type="Float32" Name="zvalue" NumberOfComponents="1" format="ascii" RangeMin="0.6175080350367352" RangeMax="2.3486693054437637">
          0.733688946813345 0.7340754456818104 0.7340438291430473 0.7336642704904079 0.7330196015536785 0.7322230935096741
          0.7313573211431503 0.7305587492883205 0.7299496494233608 0.7295717559754848 0.7293235100805759 0.7292368896305561
          0.7292755097150803 0.7294776923954487 0.7298495173454285 0.7304061502218246 0.7311433143913746 0.7320884577929974
          0.7332897782325745 0.7346815578639507 0.736199326813221 0.7377901338040829 0.7394403368234634 0.7411579675972462
          0.7429256066679955 0.7446369677782059 0.7462722063064575 0.747863981872797 0.7493439726531506 0.7507272809743881
          0.7520393840968609 0.7531762644648552 0.7541746236383915 0.7550056017935276 0.7556363977491856 0.7561251819133759
          0.756540097296238 0.7568466104567051 0.7570006102323532 0.7569110207259655 0.756574921309948 0.7559627033770084
          0.7550946399569511 0.7540153451263905 0.7528086602687836 0.7515417523682117 0.7502695992588997 0.7490105181932449
          0.7478499598801136 0.7469087317585945 0.7462037354707718 0.7458104863762856 0.7457776591181755 0.7459603287279606
          0.7461675107479095 0.7462682798504829 0.7462067194283009 0.7460927404463291 0.7459581568837166 0.7458840273320675
          0.7458689361810684 0.7458253130316734 0.7456077076494694 0.7451378889381886 0.7444603815674782 0.7436055988073349
          0.7426577545702457 0.7417093515396118 0.7407925054430962 0.73984120413661 0.7388624437153339 0.7378490976989269
          0.7368143871426582 0.7357540763914585 0.7345498204231262 0.733163595199585 0.7315164506435394 0.7296692617237568
          0.7276377864181995 0.7253480516374111 0.7229584567248821 0.7206470929086208 0.7185266837477684 0.7166474647819996
          0.7150871269404888 0.7139602489769459 0.7133505791425705 0.713256873190403 0.7135355584323406 0.714285209774971
          0.7143940627574921 0.713154062628746 0.7113316021859646 0.7094372436404228 0.707561545073986 0.7058029770851135
          0.7050598710775375 0.7086040489375591 0.709931954741478 0.7082864157855511 0.7353987991809845 0.7356646433472633
          0.7354785427451134 0.7349499017000198 0.7342573702335358 0.7334875464439392 0.7327229604125023 0.7321179956197739
          0.731722716242075 0.7315369881689548 0.7315689772367477 0.7317449674010277 0.7320431768894196 0.7325229607522488
          0.7332418896257877 0.7341127395629883 0.7350970022380352 0.7362051382660866 0.7374690696597099 0.7389117479324341
          0.7404641024768353 0.7421554997563362 0.743976391851902 0.7458600476384163 0.747688464820385 0.7494178600609303
          0.7509980835020542 0.7524695061147213 0.753815583884716 0.7550577111542225 0.7561890035867691 0.7571259513497353
          0.7578554637730122 0.7583703957498074 0.7587054520845413 0.7588780224323273 0.7588983811438084 0.7587225958704948
          0.7583783380687237 0.7578859254717827 0.757200226187706 0.7562513276934624 0.7550749853253365 0.7538247741758823
          0.7525471560657024 0.7512860633432865 0.7500218898057938 0.7487872764468193 0.747666735202074 0.7466212511062622
          0.7457210086286068 0.7449932023882866 0.7445636428892612 0.7445516884326935 0.7450601384043694 0.7458958066999912
          0.7466857172548771 0.7469815947115421 0.7468541339039803 0.7466394938528538 0.7465246990323067 0.7465226799249649
          0.746521670371294 0.7464318796992302 0.7462040819227695 0.7458344213664532 0.7453062012791634 0.7446767203509808
          0.7439298406243324 0.7430526651442051 0.7420817613601685 0.741026483476162 0.7400067746639252 0.7388227134943008
          0.7374141588807106 0.7357708141207695 0.7337806411087513 0.7315404675900936 0.7290925197303295 0.7265137583017349
          0.7238441556692123 0.7210991717875004 0.7183425053954124 0.7158763818442822 0.7140178121626377 0.7128779590129852
          0.7122356854379177 0.71210628002882 0.7123548239469528 0.7132602855563164 0.7148130424320698 0.7150287553668022
          0.7134516090154648 0.7114617340266705 0.709533803164959 0.7076825797557831 0.7061075009405613 0.7071073800325394
          0.7101419866085052 0.7102032601833344 0.7374297194182873 0.7371935993432999 0.736466072499752 0.7354463674128056
          0.7344678677618504 0.7336678057909012 0.7330448068678379 0.7325800098478794 0.7323575951159 0.7323948591947556
          0.7326784171164036 0.7331851832568645 0.7338572926819324 0.7347411103546619 0.7358313389122486 0.737060833722353
          0.7383897341787815 0.7397571541368961 0.7411491461098194 0.7426430732011795 0.7442412301898003 0.7459218315780163
          0.7477118596434593 0.7494992017745972 0.751190934330225 0.752856433391571 0.7544740214943886 0.75590381026268
          0.7571172192692757 0.7582318596541882 0.7592756673693657 0.7600903026759624 0.7606646344065666 0.7610100731253624
          0.7612045109272003 0.7612474523484707 0.761066522449255 0.7606276050209999 0.75997019931674 0.7591631710529327
          0.7582310512661934 0.7570926398038864 0.7557632997632027 0.7543307170271873 0.7529032342135906 0.7515449374914169
          0.7502988167107105 0.7491999231278896 0.7482059523463249 0.747283011674881 0.7464143224060535 0.7455783747136593
          0.7448420338332653 0.7442865036427975 0.7440330497920513 0.7441733554005623 0.7451685667037964 0.7465213686227798
          0.7473457679152489 0.7473965026438236 0.7471344098448753 0.7468189299106598 0.7464456632733345 0.7459938004612923
          0.7455778196454048 0.7452973127365112 0.7452205568552017 0.7451946288347244 0.7450274154543877 0.7446560971438885
          0.7440564706921577 0.7432617694139481 0.742223646491766 0.7408735491335392 0.7392318435013294 0.7372310608625412
          0.7348586916923523 0.7324561066925526 0.7301679737865925 0.7278494909405708 0.7252516634762287 0.7222528085112572
          0.718838132917881 0.715335201472044 0.7126987390220165 0.7119160480797291 0.7118327356874943 0.7117920219898224
          0.7120534181594849 0.7123984470963478 0.7134527787566185 0.7157216928899288 0.7155234217643738 0.7136397957801819
          0.7116663865745068 0.7097455076873302 0.7078770473599434 0.706509955227375 0.7071638181805611 0.7089038118720055
          0.7386187762022018 0.7379909157752991 0.7369871437549591 0.7357553690671921 0.7345575988292694 0.7334904968738556
          0.7327083349227905 0.7322883270680904 0.7322339154779911 0.7325012162327766 0.7330852337181568 0.7338936701416969
          0.7349286377429962 0.7361797243356705 0.7376526147127151 0.7392574101686478 0.7409741468727589 0.7426911406219006
          0.7443614415824413 0.7460074946284294 0.7477067187428474 0.7494212761521339 0.7511100806295872 0.7527736499905586
          0.7543634325265884 0.7559152133762836 0.7574279718101025 0.7588535845279694 0.7600742056965828 0.7611068785190582
          0.7620742581784725 0.7628738656640053 0.7634255364537239 0.7637014836072922 0.7638130597770214 0.7637777477502823
          0.763538371771574 0.7630786225199699 0.762349858880043 0.76132557913661 0.7600969448685646 0.7587260194122791
          0.7572615444660187 0.7557490170001984 0.7542227134108543 0.7527628242969513 0.7513557486236095 0.7501302249729633
          0.749061219394207 0.7482017315924168 0.7474370896816254 0.7467420287430286 0.7460842281579971 0.7453765198588371
          0.744752049446106 0.7443153150379658 0.7443014197051525 0.7448660135269165 0.7464038468897343 0.747808650135994
          0.748255230486393 0.7481250949203968 0.7476261556148529 0.7469047009944916 0.7460095137357712 0.7450228333473206
          0.7441729865968227 0.7435157746076584 0.743090070784092 0.7428458705544472 0.7425817064940929 0.7420675307512283
          0.7411510869860649 0.7398520819842815 0.7382608763873577 0.7365093119442463 0.7346799187362194 0.7330346405506134
          0.7314475476741791 0.7296295650303364 0.7273368425667286 0.7244434729218483 0.7208802178502083 0.7165622897446156
          0.7122874893248081 0.7106053717434406 0.7119411379098892 0.7123123221099377 0.7123138755559921 0.7124381139874458
          0.7127455659210682 0.7147993333637714 0.7172712795436382 0.7159803137183189 0.7139968238770962 0.7120248377323151
          0.7100629359483719 0.7081068865954876 0.7063443139195442 0.7052943333983421 0.7376861944794655 0.7369520105421543
          0.735929548740387 0.7347895987331867 0.7336476594209671 0.7326679304242134 0.7319493368268013 0.7316226363182068
          0.7317463383078575 0.7322940826416016 0.7331470176577568 0.7343370728194714 0.7357535399496555 0.737369816750288
          0.7391409799456596 0.7410657145082951 0.743139173835516 0.7452412247657776 0.7472725547850132 0.7491588592529297
          0.7509743943810463 0.7526957578957081 0.7543188482522964 0.7558825686573982 0.757401779294014 0.7589318044483662
          0.7604035437107086 0.7618141546845436 0.7631301172077656 0.7642557509243488 0.7651857025921345 0.7659715563058853
          0.7665659934282303 0.7668968848884106 0.7669839635491371 0.766885582357645 0.7665831036865711 0.7660240940749645
          0.7651823945343494 0.7640653885900974 0.762695237994194 0.7611681148409843 0.7595901414752007 0.7580010145902634
          0.7564135491847992 0.754879716783762 0.7533790692687035 0.7520118616521358 0.7507902681827545 0.7497396431863308
          0.7488667406141758 0.7481599040329456 0.7476350404322147 0.7471044585108757 0.7465616092085838 0.746007401496172
          0.7455207817256451 0.7452843822538853 0.7457500286400318 0.7468043901026249 0.7484244331717491 0.7495219707489014
          0.7497234120965004 0.7492915913462639 0.7482374645769596 0.7469261474907398 0.7455805093050003 0.7443338744342327
          0.7433552034199238 0.742621012032032 0.741954505443573 0.7412553653120995 0.7402965314686298 0.7391885034739971
          0.738033227622509 0.7368745729327202 0.7357289865612984 0.7346768490970135 0.7335322499275208 0.7320630587637424
          0.7300663739442825 0.727464348077774 0.7241821065545082 0.7201216854155064 0.7153032794594765 0.7118702456355095
          0.7128109112381935 0.7139019593596458 0.7135441675782204 0.7134284675121307 0.7134181335568428 0.714798279106617
          0.7187135256826878 0.7185425311326981 0.7165863327682018 0.7145942337810993 0.7125719226896763 0.7104585692286491
          0.7082990780472755 0.7062231712043285 0.7354383356869221 0.7347455397248268 0.7339300327003002 0.7330681346356869
          0.7322328761219978 0.731600821018219 0.7312244474887848 0.7312309145927429 0.731648463755846 0.7324990481138229
          0.7336646690964699 0.7350997179746628 0.7368166297674179 0.738723449409008 0.7407491654157639 0.7428995929658413
          0.7451891228556633 0.7475886903703213 0.7499125488102436 0.7520391158759594 0.7539894133806229 0.7557980604469776
          0.7575064897537231 0.7591044493019581 0.7606682069599628 0.7621903270483017 0.7637394778430462 0.7652752697467804
          0.7667144723236561 0.7679906971752644 0.7690597102046013 0.7698449790477753 0.7704041413962841 0.7707757614552975
          0.7708592154085636 0.7706607915461063 0.7701963558793068 0.7694914788007736 0.7685304321348667 0.767315536737442
          0.7658327110111713 0.7641854397952557 0.762504406273365 0.7608212009072304 0.7591390535235405 0.7576130665838718
          0.7560965791344643 0.7546868585050106 0.7534030824899673 0.7522670291364193 0.7512308172881603 0.7503863424062729
          0.7497043944895267 0.7491755113005638 0.7488320134580135 0.7485644221305847 0.7482284978032112 0.7477846592664719
          0.7474564835429192 0.7475927472114563 0.7482425309717655 0.749559048563242 0.7510964795947075 0.7519102431833744
          0.7516558803617954 0.7506146617233753 0.749201200902462 0.7477702423930168 0.7465397007763386 0.7454718574881554
          0.7445201724767685 0.7436268180608749 0.7426098249852657 0.7415193282067776 0.7404405623674393 0.7394281253218651
          0.7384231016039848 0.7375196292996407 0.7365129217505455 0.7351998388767242 0.733371414244175 0.7309640161693096
          0.7280088551342487 0.7245769947767258 0.7205004841089249 0.7166541665792465 0.7160793021321297 0.7165033333003521
          0.7158210277557373 0.7154804430902004 0.7153973802924156 0.7166292257606983 0.7206840626895428 0.7213476672768593
          0.7194255664944649 0.7174346819519997 0.7153590619564056 0.7131223529577255 0.7108137048780918 0.7085320949554443
          0.7327446490526199 0.7322314754128456 0.7317155562341213 0.7312545701861382 0.7308883517980576 0.7307493723928928
          0.7307866141200066 0.7311989180743694 0.7319872081279755 0.7331211417913437 0.734541017562151 0.7362529635429382
          0.7381949685513973 0.7403070405125618 0.74251888692379 0.7448448501527309 0.7473212741315365 0.7499167062342167
          0.7524502500891685 0.7548101469874382 0.7569479942321777 0.7588580921292305 0.7607032954692841 0.7624789215624332
          0.7641976810991764 0.7658173926174641 0.7674477137625217 0.7691060490906239 0.7706866934895515 0.7721255272626877
          0.7733358256518841 0.7742458172142506 0.7748629152774811 0.7752448059618473 0.775316022336483 0.775041650980711
          0.774445366114378 0.7735403031110764 0.7723606266081333 0.7709473744034767 0.7693301439285278 0.7675612941384315
          0.7657624818384647 0.763962522149086 0.7621862813830376 0.7605464868247509 0.7590312361717224 0.7576968260109425
          0.7564858458936214 0.7554119452834129 0.754392609000206 0.7534747682511806 0.7526500672101974 0.7520196475088596
          0.751615833491087 0.7514029666781425 0.751432791352272 0.7513685747981071 0.7510781064629555 0.7505957260727882
          0.7503879554569721 0.7508203499019146 0.7517375834286213 0.7533760592341423 0.7544942870736122 0.754660289734602
          0.7540008760988712 0.7528382129967213 0.7515559196472168 0.750349834561348 0.7491687871515751 0.7480451017618179
          0.7468933872878551 0.7457477301359177 0.7446825690567493 0.7436412014067173 0.7425900585949421 0.7415694147348404
          0.7404400184750557 0.7390562519431114 0.7372513078153133 0.7349647954106331 0.7322406992316246 0.7292262949049473
          0.7259173095226288 0.7227107211947441 0.7210437171161175 0.7201504036784172 0.7190863490104675 0.7186085917055607
          0.7186609990894794 0.7200796380639076 0.7239621542394161 0.7244368270039558 0.7225165627896786 0.7205360904335976
          0.7184351719915867 0.7160902097821236 0.7136263772845268 0.7111584953963757 0.7299556620419025 0.7297830060124397
          0.7297336012125015 0.7298085168004036 0.729986347258091 0.730268906801939 0.7307229191064835 0.7314357981085777
          0.732484232634306 0.733840212225914 0.7354537174105644 0.7373782359063625 0.7395018115639687 0.7418045550584793
          0.7442399114370346 0.7467380203306675 0.7494562491774559 0.7522230111062527 0.7549374178051949 0.7575580142438412
          0.7599159926176071 0.7619709335267544 0.7639212384819984 0.7658561356365681 0.7677546702325344 0.7696502171456814
          0.771490540355444 0.7732824385166168 0.7750198841094971 0.7766238264739513 0.7779195867478848 0.7789406403899193
          0.7796300053596497 0.7800133600831032 0.7801044248044491 0.7798820696771145 0.7792545072734356 0.7782216630876064
          0.7767945751547813 0.7751102931797504 0.7732532359659672 0.771299559623003 0.769289668649435 0.7673023007810116
          0.7654049396514893 0.7636971808969975 0.762216180562973 0.7610059976577759 0.7599581070244312 0.7590076178312302
          0.7580950669944286 0.7572015598416328 0.7563190124928951 0.7555668763816357 0.7550821229815483 0.7548473104834557
          0.754891574382782 0.7551983445882797 0.7554542385041714 0.7552808783948421 0.7547453343868256 0.754339624196291
          0.7545729652047157 0.7552761882543564 0.7564066834747791 0.7577237039804459 0.7583773359656334 0.7582893446087837
          0.7575840167701244 0.7565028928220272 0.7552064210176468 0.7538890838623047 0.7525748424232006 0.7513102442026138
          0.7501698397099972 0.7490225210785866 0.747870434075594 0.746701180934906 0.7454321682453156 0.7439311668276787
          0.7420496493577957 0.7397415563464165 0.7370982356369495 0.7342725917696953 0.7313426360487938 0.7285612188279629
          0.7264626771211624 0.7247465439140797 0.7233317866921425 0.7227883785963058 0.7232421189546585 0.7251785136759281
          0.7284895926713943 0.7279274053871632 0.7259243875741959 0.7239287383854389 0.7217542491853237 0.7192735858261585
          0.7166571915149689 0.7140842080116272 0.7273528836667538 0.72768684476614 0.7281138822436333 0.7286413125693798
          0.7291820459067822 0.7298168279230595 0.7305539511144161 0.7314818948507309 0.7327290736138821 0.7343116030097008
          0.7361341826617718 0.7382144182920456 0.7405187748372555 0.7430388480424881 0.7457064092159271 0.7484409138560295
          0.7513490691781044 0.7543974071741104 0.7573940083384514 0.7603036724030972 0.7628942169249058 0.7651692032814026
          0.7672631479799747 0.769349716603756 0.7714626416563988 0.773601096123457 0.7757019065320492 0.7777099385857582
          0.7795850783586502 0.7812772914767265 0.7827505357563496 0.7839028351008892 0.784727431833744 0.7851407453417778
          0.7852361015975475 0.7850064113736153 0.7843872159719467 0.7833307385444641 0.7818032503128052 0.7798736356198788
          0.7777381874620914 0.7755058333277702 0.7732242494821548 0.7710146568715572 0.7689675576984882 0.7671916708350182
          0.7656752169132233 0.7645348384976387 0.7637105397880077 0.7629568539559841 0.7622072286903858 0.7614634782075882
          0.7606669925153255 0.7599028497934341 0.7592887058854103 0.7589609138667583 0.758996956050396 0.7593755200505257
          0.7600547447800636 0.7606013752520084 0.7606356106698513 0.7602449581027031 0.7598355412483215 0.7596526816487312
          0.7599489912390709 0.7607691399753094 0.7620809376239777 0.7631216049194336 0.7635337673127651 0.7632081359624863
          0.7622985728085041 0.7609565034508705 0.7594917118549347 0.758075125515461 0.7567379362881184 0.755426399409771
          0.7541186511516571 0.7527638785541058 0.7513689026236534 0.7497845217585564 0.7479088306427002 0.7456336542963982
          0.7429926991462708 0.7401420511305332 0.7372622191905975 0.7345410659909248 0.7322379313409328 0.7302513234317303
          0.7286887541413307 0.7282616570591927 0.7293408438563347 0.7319940738379955 0.7335341833531857 0.7318253256380558
          0.7296484597027302 0.727600522339344 0.7253166697919369 0.7226969823241234 0.7199782431125641 0.717377096414566
          0.7248724736273289 0.7257017903029919 0.7265285104513168 0.727362297475338 0.7281948551535606 0.7290657535195351
          0.7300803326070309 0.7312694787979126 0.7327543757855892 0.7345482558012009 0.7365818992257118 0.7388590686023235
          0.7413437105715275 0.744062602519989 0.7469391226768494 0.7499968409538269 0.7532538510859013 0.7565715275704861
          0.759888056665659 0.7630782797932625 0.7660061605274677 0.7685697451233864 0.7708685323596001 0.7731740325689316
          0.7754579521715641 0.7777105793356895 0.7799770534038544 0.7821750789880753 0.7842322885990143 0.786090012639761
          0.7877649255096912 0.7890870794653893 0.790075458586216 0.7905771322548389 0.7906793244183064 0.7903934083878994
          0.7897999845445156 0.7887766994535923 0.7872262261807919 0.7851928509771824 0.7828569784760475 0.7803338952362537
          0.7777585759758949 0.7752404883503914 0.7729410640895367 0.7709718681871891 0.7694526240229607 0.7684185430407524
          0.7677162364125252 0.7672393061220646 0.7667174302041531 0.7661659754812717 0.765577495098114 0.764905609190464
          0.7643781378865242 0.7641199603676796 0.7642091810703278 0.7647315301001072 0.7657183520495892 0.7669345661997795
          0.7678383067250252 0.7680862732231617 0.7676683440804482 0.7667931504547596 0.7659117206931114 0.7657938525080681
          0.7664488330483437 0.7677283436059952 0.7690533995628357 0.7697147987782955 0.7696352265775204 0.7687864191830158
          0.7673973478376865 0.7658149264752865 0.7642379328608513 0.7627242840826511 0.7612429931759834 0.7597527354955673
          0.7582232877612114 0.7565929852426052 0.7547928728163242 0.7526320703327656 0.7500445023179054 0.7470936849713326
          0.7440604530274868 0.7411468178033829 0.7386449687182903 0.7365954965353012 0.7351476065814495 0.7350064180791378
          0.7369505427777767 0.7395252659916878 0.7386424019932747 0.7361557222902775 0.7337858267128468 0.7316279336810112
          0.7292079478502274 0.7264496833086014 0.723658561706543 0.720944918692112 0.7221948467195034 0.7233794592320919
          0.72449641674757 0.7255890294909477 0.7267447598278522 0.7280042432248592 0.7294035963714123 0.7309927642345428
          0.7327746525406837 0.7347928211092949 0.7370345629751682 0.7395123466849327 0.7421974986791611 0.7451074011623859
          0.7482617124915123 0.7516390644013882 0.7552278749644756 0.7589181251823902 0.7625972218811512 0.7661755084991455
          0.7694500125944614 0.7723434902727604 0.7748940512537956 0.7773380875587463 0.779734879732132 0.7820328772068024
          0.7843660935759544 0.786705270409584 0.788985438644886 0.7910852655768394 0.7929261736571789 0.7944288216531277
          0.7955817990005016 0.7962780706584454 0.7964555695652962 0.7961619384586811 0.7954922802746296 0.7944994978606701
          0.7929561361670494 0.7909194082021713 0.7884530574083328 0.7856969274580479 0.7828078307211399 0.7799874655902386
          0.7774082757532597 0.7751503512263298 0.7735169790685177 0.772546797990799 0.7720341458916664 0.7717547751963139
          0.7715528346598148 0.7712527923285961 0.7709206268191338 0.7705977000296116 0.770339947193861 0.7703314498066902
          0.7706666812300682 0.7715338468551636 0.7729579843580723 0.7747498750686646 0.7763644121587276 0.7771371193230152
          0.7769139111042023 0.7758956886827946 0.7744580544531345 0.7731923945248127 0.7728008888661861 0.7735005468130112
          0.7749051824212074 0.7762389406561852 0.7768690176308155 0.7767237052321434 0.775868721306324 0.7744374312460423
          0.7727445140480995 0.7710460387170315 0.7693413533270359 0.7676849849522114 0.7660791724920273 0.7644564434885979
          0.7627198658883572 0.7606406137347221 0.7580879516899586 0.7550821453332901 0.7518339529633522 0.7486374042928219
          0.7458723783493042 0.7437402158975601 0.7424947023391724 0.7427524328231812 0.7454249002039433 0.7462304122745991
          0.7439182735979557 0.7410106584429741 0.7384172976016998 0.7361185699701309 0.7335256077349186 0.7306485138833523
          0.7277107983827591 0.7247864902019501 0.7190906591713428 0.7205076180398464 0.7219456285238266 0.7234622985124588
          0.7251053899526596 0.7268823757767677 0.7287236601114273 0.7306908182799816 0.7328032925724983 0.735052689909935
          0.7375597581267357 0.7403397336602211 0.7433552332222462 0.7465964145958424 0.7500865049660206 0.7538065984845161
          0.7577629834413528 0.7618185840547085 0.7658816501498222 0.7698331698775291 0.7734542042016983 0.7766565233469009
          0.7794228345155716 0.781960379332304 0.7843796610832214 0.7867103479802608 0.789124570786953 0.7915514074265957
          0.7939235344529152 0.7961547635495663 0.798186581581831 0.7998887337744236 0.8012656718492508 0.8021595068275928
          0.8025426119565964 0.8022923767566681 0.8015437535941601 0.8004950284957886 0.7990784645080566 0.7970907390117645
          0.7945584952831268 0.791584637016058 0.7883852161467075 0.7852216325700283 0.7822891622781754 0.7796916477382183
          0.7778043076395988 0.7768721096217632 0.7765600644052029 0.776536762714386 0.7766430787742138 0.7767061144113541
          0.7768125236034393 0.7770091183483601 0.7772818170487881 0.7777310833334923 0.7785403020679951 0.7798070013523102
          0.781625609844923 0.7837900072336197 0.7857578322291374 0.7868169136345387 0.7868627533316612 0.786081824451685
          0.7846281602978706 0.782998826354742 0.7817094586789608 0.7813173308968544 0.7820130959153175 0.7834285609424114
          0.7847201079130173 0.78529854118824 0.785016130656004 0.7839854992926121 0.7824377603828907 0.7805900126695633
          0.7787351012229919 0.7769153751432896 0.7751725800335407 0.7734905816614628 0.7716984264552593 0.7696476876735687
          0.7671698443591595 0.764196127653122 0.7608081549406052 0.7573700025677681 0.754349946975708 0.7521321810781956
          0.750990591943264 0.7515433207154274 0.7535896711051464 0.7523418255150318 0.7494104988873005 0.7463473677635193
          0.7435217052698135 0.740991372615099 0.7381927445530891 0.7351677715778351 0.7320132628083229 0.7288550920784473
          0.7156651616096497 0.7173756770789623 0.7192043103277683 0.7211859077215195 0.723336648195982 0.7255726642906666
          0.7278447821736336 0.7302195280790329 0.7326702438294888 0.7353406213223934 0.7383071407675743 0.7415352910757065
          0.7450272962450981 0.7487441375851631 0.7526543661952019 0.7567622661590576 0.7610483504831791 0.7654171995818615
          0.7698070257902145 0.7741118967533112 0.7780543006956577 0.7815256267786026 0.7845350988209248 0.7872032150626183
          0.7896829545497894 0.7920699939131737 0.7944783829152584 0.796942949295044 0.7993382625281811 0.8016687296330929
          0.8038142845034599 0.8056518957018852 0.8072306700050831 0.8083137571811676 0.8088484592735767 0.8087523765861988
          0.8080702275037766 0.8069509714841843 0.8055322617292404 0.8036411367356777 0.8011390529572964 0.7980793826282024
          0.7946092039346695 0.791006363928318 0.7876239791512489 0.7845857255160809 0.7823372557759285 0.7812420278787613
          0.7812129557132721 0.781650748103857 0.7822297550737858 0.7828228659927845 0.7834801264107227 0.7843418084084988
          0.7853517979383469 0.7864883281290531 0.7877795360982418 0.7892130389809608 0.7910712324082851 0.7933768481016159
          0.7955595776438713 0.7970019653439522 0.7974676862359047 0.7970823086798191 0.7959106378257275 0.7943905219435692
          0.7928944528102875 0.7918038554489613 0.7914410419762135 0.7922105602920055 0.7934408895671368 0.7945683151483536
          0.7952022328972816 0.7948931381106377 0.7936450354754925 0.7918226234614849 0.7898648455739021 0.7878105826675892
          0.785734124481678 0.7837718315422535 0.78193024918437 0.7799352295696735 0.7776155695319176 0.7747525721788406
          0.7713157497346401 0.7677812501788139 0.7646612413227558 0.7623209282755852 0.7610173746943474 0.7611065246164799
          0.7609612755477428 0.7584608048200607 0.7552922442555428 0.7521170936524868 0.7490908466279507 0.7462460361421108
          0.7432106919586658 0.7399276867508888 0.736545979976654 0.7331936843693256 0.7120272628962994 0.7140771374106407
          0.7162492498755455 0.7186115048825741 0.7211161963641644 0.7236891388893127 0.7264030277729034 0.7292187176644802
          0.7321940064430237 0.7354537583887577 0.7390407100319862 0.742946557700634 0.7471117451786995 0.7514739260077477
          0.7559506557881832 0.7605484873056412 0.7652246318757534 0.7699419371783733 0.7746352925896645 0.7791353315114975
          0.7833223082125187 0.7870750613510609 0.7903017774224281 0.7931657060980797 0.7958104237914085 0.7983132600784302
          0.8007341548800468 0.8031692318618298 0.8055688291788101 0.8078672550618649 0.8100639022886753 0.8120062723755836
          0.8136667124927044 0.8148912787437439 0.8155371993780136 0.815608125180006 0.8150320611894131 0.8138979822397232
          0.8123719654977322 0.8104702793061733 0.8079599291086197 0.8047898337244987 0.8011168092489243 0.7971642836928368
          0.7932693548500538 0.7897024340927601 0.7869859412312508 0.7856205813586712 0.7857754565775394 0.7868530601263046
          0.7881636060774326 0.7895330376923084 0.7909837476909161 0.7925870269536972 0.7943986542522907 0.796266358345747
          0.7979647740721703 0.7994225323200226 0.8011538237333298 0.8034265488386154 0.8058827742934227 0.8079466857016087
          0.8090257979929447 0.8091039955615997 0.8083549700677395 0.8071257770061493 0.8057065680623055 0.8044323213398457
          0.8036051243543625 0.803470078855753 0.8041395246982574 0.804975837469101 0.8059116341173649 0.8065043054521084
          0.8060018196702003 0.804346963763237 0.8023216128349304 0.8001541197299957 0.7978647015988827 0.7956976480782032
          0.7937596961855888 0.7918197587132454 0.7896091043949127 0.7868536226451397 0.7835283987224102 0.779954805970192
          0.7767318114638329 0.7740850821137428 0.7720842957496643 0.770358968526125 0.7680543847382069 0.7648778446018696
          0.7615585587918758 0.7582410573959351 0.7550394088029861 0.7518674060702324 0.7485324554145336 0.7449648380279541
          0.7413755431771278 0.7377917394042015 0.7077285721898079 0.7098517138510942 0.7122101429849863 0.7147744875401258
          0.7175267431885004 0.7204307839274406 0.7235073354095221 0.7268255650997162 0.7305107526481152 0.7345497887581587
          0.7389871291816235 0.7438621185719967 0.7490629889070988 0.7543631456792355 0.759669691324234 0.7649607211351395
          0.7701690420508385 0.775236003100872 0.7802283689379692 0.7849317006766796 0.7893106713891029 0.7932919375598431
          0.7967461049556732 0.799828764051199 0.8026749677956104 0.805373378098011 0.8079127036035061 0.8103880770504475
          0.8127831481397152 0.8150718286633492 0.8172343894839287 0.8191403150558472 0.8207968920469284 0.8220781944692135
          0.8227914199233055 0.822895459830761 0.8223039284348488 0.8211002610623837 0.8194395713508129 0.8174439445137978