<VTKFile type="PolyData" version="1.0" byte_order="LittleEndian" header_type="UInt64">
  <PolyData>
    <Piece NumberOfPoints="10000" NumberOfVerts="0" NumberOfLines="0" NumberOfStrips="0" NumberOfPolys="9801">
      <PointData>
        <DataArray type="Float32" Name="zvalue" NumberOfComponents="1" format="ascii" RangeMin="0.6570222154259682" RangeMax="1.525308072566986">
          0.7228467240929604 0.720252737402916 0.7177189365029335 0.7152937352657318 0.7129263207316399 0.7105353474617004
          0.7081227079033852 0.7057090327143669 0.7032814994454384 0.7008560970425606 0.6984216049313545 0.6960069760680199
          0.6936506256461143 0.6913931891322136 0.6892197728157043 0.6871089935302734 0.6851096525788307 0.6832671985030174
          0.6814718022942543 0.6797105297446251 0.6780644431710243 0.6765030845999718 0.67502261698246 0.6735759302973747
          0.6722285598516464 0.6710277944803238 0.6699378341436386 0.6689385622739792 0.6679922938346863 0.6671400219202042
          0.6663835421204567 0.6656767725944519 0.665036752820015 0.6644955947995186 0.6640542969107628 0.6636820882558823
          0.6633639261126518 0.6631692573428154 0.6627180203795433 0.6620922610163689 0.6615606993436813 0.6613975092768669
          0.6611326634883881 0.661150299012661 0.661165788769722 0.6617836728692055 0.6621618121862411 0.6626577265560627
          0.6633938997983932 0.6642011180520058 0.6651651784777641 0.6663364693522453 0.6676390655338764 0.6690316572785378
          0.6705099642276764 0.6720589697360992 0.6736460328102112 0.6752970777451992 0.6769888587296009 0.678660936653614
          0.6803679093718529 0.6821387149393559 0.6839435696601868 0.6858326904475689 0.6877951994538307 0.6898817531764507
          0.6921797394752502 0.6955498903989792 0.7010181993246078 0.7058643028140068 0.7095348872244358 0.713383823633194
          0.7165681943297386 0.7186043113470078 0.7203201539814472 0.7256724499166012 0.7068076878786087 0.7067630738019943
          0.7062281034886837 0.7069443389773369 0.7069423571228981 0.7131671085953712 0.72430869191885 0.7240305542945862
          0.7090637907385826 0.7152081616222858 0.7153971642255783 0.7155457064509392 0.71560188382864 0.7157046422362328
          0.7158017605543137 0.7158874273300171 0.7159445583820343 0.7159592881798744 0.715920589864254 0.7158314287662506
          0.7156898006796837 0.7155015431344509 0.7152695879340172 0.7149927541613579 0.7212838158011436 0.718629464507103
          0.7160711884498596 0.7136217281222343 0.7111422419548035 0.7086394131183624 0.706161342561245 0.7036829441785812
          0.7011754438281059 0.6986492648720741 0.696129210293293 0.6936512514948845 0.6912753656506538 0.6889822781085968
          0.6868079379200935 0.6847400367259979 0.6828069165349007 0.6809365749359131 0.6790809035301208 0.6773279756307602
          0.6757417321205139 0.67425786703825 0.6728662624955177 0.6715568900108337 0.6702924147248268 0.6691705286502838
          0.6681689694523811 0.6673018708825111 0.6665209978818893 0.6657996699213982 0.6651927530765533 0.6646772846579552
          0.6642298251390457 0.6639002561569214 0.6636501625180244 0.6635341644287109 0.6634648442268372 0.6634750962257385
          0.6634238958358765 0.6631193831562996 0.6626361161470413 0.6625807359814644 0.6624434441328049 0.6624644845724106
          0.6626427918672562 0.6631222851574421 0.663840226829052 0.6645270586013794 0.6653212420642376 0.6663292609155178
          0.6674373708665371 0.6687311083078384 0.6702136285603046 0.6718295216560364 0.673529788851738 0.6752931550145149
          0.6770757921040058 0.6789205521345139 0.6807473823428154 0.6825722940266132 0.684475377202034 0.6864288821816444
          0.6884807720780373 0.6905766502022743 0.692842997610569 0.6954023726284504 0.6989931911230087 0.70344228297472
          0.7072556614875793 0.710619255900383 0.7138031758368015 0.7166376113891602 0.719225786626339 0.7216494828462601
          0.728279285132885 0.714902825653553 0.7142820134758949 0.7123930677771568 0.7120964750647545 0.713291697204113
          0.7141713798046112 0.726829320192337 0.7294012531638145 0.7268202379345894 0.7086796052753925 0.7191918455064297
          0.7192208059132099 0.7192345336079597 0.7191879600286484 0.7191833704710007 0.7192181758582592 0.7192436009645462
          0.7192149572074413 0.7191312313079834 0.7190004922449589 0.7188201323151588 0.7185911312699318 0.7183177806437016
          0.7179985828697681 0.7176366187632084 0.7196944355964661 0.7170083075761795 0.714439831674099 0.7118697166442871
          0.7092606127262115 0.7066883891820908 0.7041176483035088 0.7015477195382118 0.6989745274186134 0.6963634416460991
          0.6937640085816383 0.6912638619542122 0.6888570636510849 0.6865644827485085 0.6844000071287155 0.6823752969503403
          0.6803932711482048 0.6784661337733269 0.6766270399093628 0.67491514980793 0.673390232026577 0.6720382422208786
          0.6707914993166924 0.6696288213133812 0.6684889122843742 0.6674658134579659 0.6666146069765091 0.665868729352951
          0.6652849987149239 0.6647345423698425 0.6642722338438034 0.6639697328209877 0.6637582406401634 0.663639523088932
          0.6636490970849991 0.663756974041462 0.6639134213328362 0.6641795113682747 0.664484016597271 0.6644967868924141
          0.6643663048744202 0.6642003580927849 0.6643889248371124 0.6644192822277546 0.6647053323686123 0.6650399528443813
          0.6659588143229485 0.6668824963271618 0.6679353453218937 0.6690470986068249 0.6703276261687279 0.6717202849686146
          0.6733531281352043 0.6751707345247269 0.6770802177488804 0.6790621615946293 0.6810824573040009 0.6830967478454113
          0.6850876696407795 0.6871071234345436 0.6891725324094296 0.6913278363645077 0.6936210058629513 0.6960214152932167
          0.6986462883651257 0.7020350769162178 0.7061409913003445 0.709878895431757 0.7131432928144932 0.7163603417575359
          0.7194391936063766 0.7221058011054993 0.7248852215707302 0.7370820790529251 0.745200626552105 0.7434554696083069
          0.7445955611765385 0.7246167548000813 0.7184101156890392 0.7202392965555191 0.7244069650769234 0.7347081080079079
          0.7338774651288986 0.7287687361240387 0.7201083302497864 0.7232266962528229 0.7231422662734985 0.7230181619524956
          0.7228809967637062 0.7228160947561264 0.7227588444948196 0.7226775921881199 0.7225401699542999 0.7223564386367798
          0.7221268191933632 0.7218487709760666 0.7215259447693825 0.7211593575775623 0.7207253910601139 0.720243614166975
          0.7180693745613098 0.7153708562254906 0.7127168029546738 0.7100235521793365 0.7073245868086815 0.7046478688716888
          0.70199004560709 0.699336938560009 0.6966808959841728 0.6939927041530609 0.6913669630885124 0.6888279244303703
          0.6863929554820061 0.6840828210115433 0.6818958520889282 0.6798118874430656 0.6778009906411171 0.6758900508284569
          0.6741169914603233 0.6725174188613892 0.6711319163441658 0.6699443757534027 0.6688545718789101 0.6678365468978882
          0.6668762341141701 0.6660087555646896 0.6653355211019516 0.6647921353578568 0.664382092654705 0.6640498712658882
          0.6637619212269783 0.6636332273483276 0.6636632606387138 0.6637961640954018 0.6640288606286049 0.6643694490194321
          0.664801262319088 0.6653411760926247 0.6658566072583199 0.6663239151239395 0.6665119118988514 0.6666291356086731
          0.6668545491993427 0.6671168059110641 0.6674271114170551 0.6678428277373314 0.6686339639127254 0.6698655635118484
          0.6711149327456951 0.6724165230989456 0.6738332957029343 0.6754084303975105 0.6771392002701759 0.6791027262806892
          0.6812390498816967 0.6834625191986561 0.6856897510588169 0.6879078894853592 0.6901098825037479 0.6922947317361832
          0.6945249624550343 0.6969167701900005 0.6994253322482109 0.7020433880388737 0.7050774767994881 0.7090044394135475
          0.7128455489873886 0.7161858528852463 0.719264842569828 0.7224140241742134 0.7256811894476414 0.7294379100203514
          0.7416325435042381 0.750224769115448 0.7484057620167732 0.7519071102142334 0.7543223351240158 0.7507106773555279
          0.7252881079912186 0.7270258814096451 0.7362325713038445 0.7392551600933075 0.7385192140936852 0.718554176390171
          0.7274899855256081 0.7273540422320366 0.7271650843322277 0.7268865965306759 0.7266692854464054 0.7265010066330433
          0.726334672421217 0.7261376716196537 0.7258906960487366 0.7255990132689476 0.7252617962658405 0.7248792573809624
          0.7244307100772858 0.7239242866635323 0.7233632653951645 0.7227890193462372 0.7163683176040649 0.7136095389723778
          0.7108635008335114 0.7080383524298668 0.7052658647298813 0.7025091424584389 0.6997718885540962 0.6970402896404266
          0.6942795664072037 0.6915613859891891 0.6889182180166245 0.6863206997513771 0.6838119402527809 0.6814396679401398
          0.6792180761694908 0.6771271899342537 0.6751478537917137 0.6732945591211319 0.6716177389025688 0.6701895147562027
          0.6689797192811966 0.6679985076189041 0.6671224907040596 0.6662980169057846 0.6655541881918907 0.6648994982242584
          0.6643930971622467 0.6640496253967285 0.6638206169009209 0.6637306809425354 0.6636815890669823 0.6637982130050659
          0.6640865281224251 0.6644772291183472 0.664910726249218 0.6654761731624603 0.6661520302295685 0.666909821331501
          0.6677820384502411 0.668604101985693 0.6691246442496777 0.6695458516478539 0.6700143404304981 0.6703713051974773
          0.6709362715482712 0.6714927852153778 0.6723014712333679 0.6735657453536987 0.6749264895915985 0.6764938868582249
          0.6780624836683273 0.6797930300235748 0.6816617101430893 0.6837670989334583 0.686106700450182 0.6885402575135231
          0.6909633353352547 0.6934053935110569 0.69582674279809 0.6981814056634903 0.7005929760634899 0.7031454928219318
          0.7057876661419868 0.7085819393396378 0.7119178585708141 0.7159107960760593 0.7194984145462513 0.7226554714143276
          0.7257246673107147 0.7293488383293152 0.7343696393072605 0.7445553913712502 0.7448790594935417 0.7468361593782902
          0.7528258673846722 0.7577403336763382 0.7607719264924526 0.7583847604691982 0.7320813909173012 0.7328343540430069
          0.7426556870341301 0.7438056915998459 0.7435225620865822 0.7146480306982994 0.7320378348231316 0.731569092720747
          0.7312144003808498 0.7308184579014778 0.7305069603025913 0.7302243188023567 0.7299398630857468 0.7296215333044529
          0.729255948215723 0.7288447842001915 0.7283638641238213 0.7278222143650055 0.7272217124700546 0.7266006544232368
          0.7259726338088512 0.725338626652956 0.7146081551909447 0.7117690593004227 0.7089030966162682 0.7059864178299904
          0.7031403407454491 0.7003209218382835 0.6974924057722092 0.6946347281336784 0.6917941942811012 0.6890411749482155
          0.6863458305597305 0.6836693957448006 0.6811058819293976 0.6787190809845924 0.6764710694551468 0.6744095385074615
          0.672540046274662 0.6707855984568596 0.6692731902003288 0.6680556163191795 0.6670515090227127 0.6662386953830719
          0.6655895113945007 0.6650319993495941 0.6645210459828377 0.6640783995389938 0.6637538149952888 0.663626454770565
          0.6636534631252289 0.6638257279992104 0.6641034707427025 0.664480596780777 0.6650123745203018 0.6656564101576805
          0.6663801148533821 0.6671799123287201 0.6681145094335079 0.6690969243645668 0.6702381819486618 0.6712594516575336
          0.6722652614116669 0.6729834228754044 0.6738004386425018 0.674392580986023 0.675062507390976 0.6760046035051346
          0.6768505498766899 0.6780745983123779 0.6795440800487995 0.6812768615782261 0.6830904670059681 0.6849293000996113
          0.6870166435837746 0.6892507113516331 0.6917369142174721 0.6943503469228745 0.6969562098383904 0.6996027566492558
          0.7022426947951317 0.7047974765300751 0.7073427326977253 0.7100024856626987 0.7127255909144878 0.7155544795095921
          0.7188782021403313 0.7228102125227451 0.7262944765388966 0.7294480428099632 0.7332653068006039 0.7385515458881855
          0.7481609657406807 0.7477391138672829 0.7468909919261932 0.7503635473549366 0.7575287781655788 0.7631285153329372
          0.7670011036098003 0.7640640065073967 0.7367920354008675 0.7395175918936729 0.7481542453169823 0.7490455284714699
          0.748847670853138 0.7418222315609455 0.7363239675760269 0.7358366586267948 0.7353127896785736 0.7348165325820446
          0.7343866638839245 0.7339822202920914 0.7335714399814606 0.7331100441515446 0.732582725584507 0.7319844141602516
          0.7313410714268684 0.7306725718080997 0.7299850583076477 0.7292941138148308 0.7286107391119003 0.7279244847595692
          0.7128009125590324 0.7099080383777618 0.7068830952048302 0.703922800719738 0.7010054215788841 0.69808279722929
          0.6950987875461578 0.6921200081706047 0.6892243921756744 0.686394676566124 0.6835629716515541 0.6808522641658783
          0.6782969757914543 0.6759021207690239 0.6737228184938431 0.6717988699674606 0.6700638681650162 0.6684911474585533
          0.667143739759922 0.6660587266087532 0.6652590483427048 0.6646994724869728 0.6643291339278221 0.6640282273292542
          0.6637812182307243 0.6635739877820015 0.6634748131036758 0.6636072918772697 0.6639493033289909 0.6644298881292343
          0.6650461629033089 0.6656927764415741 0.6664890199899673 0.6674387156963348 0.6684640124440193 0.6695624366402626
          0.6707289703190327 0.6720305904746056 0.673385713249445 0.6747454181313515 0.6760845370590687 0.6770953834056854
          0.6781084947288036 0.679155059158802 0.6799948811531067 0.6810252889990807 0.6824350506067276 0.6835555098950863
          0.6851391568779945 0.6868656985461712 0.6889320351183414 0.6910179331898689 0.6932058744132519 0.6955971494317055
          0.698187630623579 0.7009320594370365 0.7037263289093971 0.706582136452198 0.709415715187788 0.712116364389658
          0.7148115374147892 0.7174958065152168 0.7202157266438007 0.72294607385993 0.7259906716644764 0.7297601774334908
          0.7332733906805515 0.7369537986814976 0.7417025491595268 0.7515957355499268 0.7526496611535549 0.7492115050554276
          0.7504571080207825 0.7567213997244835 0.7638043984770775 0.7693487927317619 0.7723917588591576 0.7652752846479416
          0.7398665696382523 0.7466131374239922 0.7539809867739677 0.7546833753585815 0.7545354813337326 0.7501232959330082
          0.7407521344721317 0.7401336282491684 0.7394694983959198 0.7388583421707153 0.7382976338267326 0.73774503916502
          0.7371534295380116 0.7364946231245995 0.7357897087931633 0.7350566871464252 0.7343047335743904 0.7335474193096161
          0.7327871546149254 0.7320273108780384 0.7312676422297955 0.7305007949471474 0.7109421193599701 0.7079263255000114
          0.7048262879252434 0.7018081247806549 0.6987865120172501 0.6956864073872566 0.6925879269838333 0.689546249806881
          0.686558909714222 0.6835510656237602 0.6806549802422523 0.6779515743255615 0.6754492819309235 0.6731548234820366
          0.6711103469133377 0.6693007275462151 0.6677016168832779 0.666286826133728 0.665118932723999 0.6642760187387466
          0.6637498140335083 0.6634955033659935 0.66340571641922 0.6634102761745453 0.6634668186306953 0.6635421365499496
          0.663733646273613 0.6641542986035347 0.6648334860801697 0.6657012850046158 0.6666355803608894 0.6676171496510506
          0.6687091961503029 0.669939860701561 0.6712566018104553 0.6726614348590374 0.6741250269114971 0.6757090166211128
          0.6773685850203037 0.6789979003369808 0.6805213950574398 0.6820028536021709 0.6832498535513878 0.6846666522324085
          0.6858306378126144 0.6869730316102505 0.6885452046990395 0.6901483237743378 0.691614106297493 0.693437498062849
          0.6956430152058601 0.6979874186217785 0.7003450468182564 0.7028723061084747 0.7055688761174679 0.7083829864859581
          0.7113670818507671 0.7143780738115311 0.7173359245061874 0.7201950922608376 0.7229696996510029 0.7256433516740799
          0.7283226251602173 0.7308986373245716 0.733630757778883 0.7367796450853348 0.7402382716536522 0.7446857988834381
          0.7537557631731033 0.7581533417105675 0.7536609657108784 0.7539928182959557 0.7571673355996609 0.7635838054120541
          0.7699038498103619 0.7745239585638046 0.7761863544583321 0.7643937468528748 0.746375061571598 0.7538236156105995
          0.7596067562699318 0.7604461088776588 0.784420557320118 0.761603981256485 0.7452573701739311 0.7444608360528946
          0.7436688840389252 0.7429202012717724 0.7421826049685478 0.741423636674881 0.7406313829123974 0.739822518080473
          0.7390010021626949 0.7381605468690395 0.737306110560894 0.7364510893821716 0.7355983071029186 0.734746228903532
          0.7338992804288864 0.7330645173788071 0.708988755941391 0.705819308757782 0.70268914103508 0.6995685026049614
          0.6963996663689613 0.6931969374418259 0.6900157183408737 0.6868786066770554 0.6836864724755287 0.6805989891290665
          0.6777170151472092 0.67509326338768 0.6726821213960648 0.6704921647906303 0.6685740947723389 0.6669189929962158
          0.6654768511652946 0.6643063724040985 0.663407601416111 0.6628419160842896 0.6626299917697906 0.6626782268285751
          0.662907063961029 0.663245290517807 0.6636698246002197 0.6641084253787994 0.66463952511549 0.6654353588819504
          0.6664594784379005 0.6676655672490597 0.6689613051712513 0.6703052744269371 0.6717278026044369 0.6732486002147198
          0.6748542562127113 0.6765500642359257 0.6783585250377655 0.6802086681127548 0.6821632757782936 0.684041190892458
          0.6858547143638134 0.6877439245581627 0.6892577484250069 0.6909185200929642 0.6924910731613636 0.6938802674412727
          0.6954288743436337 0.6976468339562416 0.6993548311293125 0.7012216933071613 0.7033327370882034 0.7058486044406891
          0.7083996832370758 0.7111031301319599 0.7139317765831947 0.7168477550148964 0.7199163176119328 0.7230355478823185
          0.7261319346725941 0.7290508672595024 0.7318276911973953 0.7344996966421604 0.7370766364037991 0.7395152226090431
          0.7419111989438534 0.7443044111132622 0.7473384588956833 0.7530189007520676 0.7622892670333385 0.7580800727009773
          0.7582278326153755 0.7593344673514366 0.7639491036534309 0.7696076929569244 0.7748315520584583 0.7789509370923042
          0.781763844192028 0.7600946724414825 0.7547138333320618 0.7603120282292366 0.7650431767106056 0.769380196928978
          0.7910486310720444 0.7709419131278992 0.7498039826750755 0.7488382533192635 0.7478698827326298 0.7469166293740273
          0.7459906525909901 0.7450766339898109 0.7441420778632164 0.7432030439376831 0.7422480098903179 0.7412855848670006
          0.7403238788247108 0.7393705993890762 0.7384273558855057 0.7374909669160843 0.736565425992012 0.7356450334191322
          0.7068629041314125 0.7036152333021164 0.7003818228840828 0.6971504539251328 0.6938624978065491 0.6905689164996147
          0.6873101964592934 0.6839624866843224 0.6807324513792992 0.6776885092258453 0.6749045252799988 0.6723531633615494
          0.6700280904769897 0.6679760366678238 0.6662407740950584 0.6647779196500778 0.6635826155543327 0.6626599505543709
          0.6620544791221619 0.661818377673626 0.6618776246905327 0.6622565537691116 0.6628807783126831 0.6636118814349174
          0.664429135620594 0.665329284965992 0.6663177162408829 0.6674849689006805 0.6688617393374443 0.6703788340091705
          0.6720274910330772 0.6737236529588699 0.6754960082471371 0.6773677133023739 0.6793014407157898 0.6813136823475361
          0.6834268309175968 0.6855780966579914 0.6877736672759056 0.6900251731276512 0.6921261250972748 0.6942137889564037
          0.6961989626288414 0.6980052031576633 0.6999567523598671 0.7017287015914917 0.703398834913969 0.7058700211346149
          0.7081900015473366 0.7102169990539551 0.7122228667140007 0.714767087250948 0.71749297529459 0.720297534018755
          0.7233165353536606 0.7263683453202248 0.7294781059026718 0.7326797284185886 0.7358046919107437 0.7387007102370262
          0.7414503134787083 0.7440731935203075 0.7464805506169796 0.7487404868006706 0.7508615404367447 0.7529158592224121
          0.7556612156331539 0.7637998685240746 0.763052936643362 0.7615529447793961 0.7627451717853546 0.7653218694031239
          0.7701780498027802 0.7759105376899242 0.7818795442581177 0.7872082144021988 0.7887846827507019 0.7614362761378288
          0.7632722854614258 0.7663870677351952 0.7708864808082581 0.7970022186636925 0.796716220676899 0.7710659876465797
          0.7543247677385807 0.7531564496457577 0.7520125694572926 0.7509086728096008 0.7498445585370064 0.7487821280956268
          0.7476911395788193 0.7466038167476654 0.745507501065731 0.744411651045084 0.743331778794527 0.7422699071466923
          0.7412244006991386 0.7401955164968967 0.7391760610044003 0.7381629794836044 0.7045599445700645 0.7012024372816086
          0.6978871151804924 0.6945218816399574 0.6911286041140556 0.6877633854746819 0.6843385770916939 0.6810138896107674
          0.6778987348079681 0.6749702841043472 0.6722446903586388 0.6697209998965263 0.6675070077180862 0.665677897632122
          0.6641736626625061 0.6629768684506416 0.6620667427778244 0.6614506617188454 0.661201149225235 0.6612958982586861
          0.661732517182827 0.662508949637413 0.6635145246982574 0.6646571680903435 0.6659204810857773 0.6673354655504227
          0.6688260287046432 0.6704001314938068 0.6721219047904015 0.6740142442286015 0.6760188862681389 0.6780822649598122
          0.6802032105624676 0.6824056170880795 0.6846955418586731 0.6870457530021667 0.68946922570467 0.6919320039451122
          0.6943794973194599 0.6969296857714653 0.6993046589195728 0.7016986943781376 0.7040785178542137 0.7061074152588844
          0.7083579003810883 0.7105310410261154 0.7124587334692478 0.7148298248648643 0.717969186604023 0.7204815112054348
          0.7225964553654194 0.7249069921672344 0.7277239002287388 0.730639360845089 0.7337120287120342 0.7369357571005821
          0.7401557117700577 0.7433152608573437 0.7463761568069458 0.749230895191431 0.7518974021077156 0.7543747164309025
          0.7566002234816551 0.7586150504648685 0.760467279702425 0.7623552307486534 0.7661019898951054 0.7712346501648426
          0.7664082013070583 0.7675344608724117 0.7691814303398132 0.773140262812376 0.7785011120140553 0.7847269512712955
          0.791053231805563 0.7964596152305603 0.7909067869186401 0.7692295759916306 0.7717751041054726 0.7733410373330116
          0.7928489446640015 0.80333112180233 0.8021421879529953 0.7656190060079098 0.7588188275694847 0.7575138323009014
          0.7562232241034508 0.7549527660012245 0.753704272210598 0.7524461634457111 0.7511831782758236 0.7499382421374321
          0.7487048730254173 0.7474891096353531 0.7462968677282333 0.7451256290078163 0.7439742833375931 0.7428444027900696
          0.7417097613215446 0.7405791990458965 0.7020348608493805 0.6986046805977821 0.6951524242758751 0.6916814371943474
          0.6882292702794075 0.684744767844677 0.6813880279660225 0.6782497987151146 0.6752492487430573 0.6723732352256775
          0.6696613654494286 0.667245976626873 0.6652163565158844 0.6636282205581665 0.6624509170651436 0.6616027653217316
          0.6610391736030579 0.6608235016465187 0.6610032543540001 0.6615425646305084 0.6624054163694382 0.6635633111000061
          0.6649605147540569 0.6665735766291618 0.6683227606117725 0.6701742708683014 0.6721510328352451 0.6741952039301395
          0.6763186901807785 0.6786168813705444 0.6809952333569527 0.6834473796188831 0.685928575694561 0.6885275468230247
          0.6911216452717781 0.6937857158482075 0.6965573579072952 0.6993412189185619 0.7021379210054874 0.7048966512084007
          0.707503255456686 0.7101374641060829 0.7127569913864136 0.7152905985713005 0.7178346030414104 0.7203300558030605
          0.7226365618407726 0.7250325866043568 0.7285618558526039 0.7317164614796638 0.7343048565089703 0.7363641895353794
          0.739015731960535 0.7420593537390232 0.7451386265456676 0.7484790422022343 0.7518320307135582 0.7549017071723938
          0.7578451409935951 0.7605695687234402 0.7631152346730232 0.7653871811926365 0.767404068261385 0.7692158073186874
          0.7708938308060169 0.7726114951074123 0.7783605307340622 0.7740543112158775 0.7720917798578739 0.7732207141816616
          0.7741585485637188 0.7765533775091171 0.781516432762146 0.7893503233790398 0.7981881275773048 0.805258259177208
          0.7874308153986931 0.7783586233854294 0.7802835553884506 0.7821818441152573 0.8092951104044914 0.8092365488409996
          0.8065495938062668 0.7659661769866943 0.7633406892418861 0.7618480697274208 0.7603576555848122 0.7588956244289875
          0.7574646808207035 0.7560327909886837 0.7546146363019943 0.7532239966094494 0.7518603280186653 0.7505223080515862
          0.7492106594145298 0.7479111738502979 0.7466242015361786 0.7453645616769791 0.7441272512078285 0.7429127097129822
          0.6993301883339882 0.6958091259002686 0.6922928988933563 0.6887592673301697 0.6851958632469177 0.6817913502454758
          0.6785961091518402 0.6755656003952026 0.6726342663168907 0.6698388606309891 0.667256310582161 0.6650035008788109
          0.6632496565580368 0.6619874909520149 0.6612080186605453 0.6607798188924789 0.6606636792421341 0.6609716042876244
          0.661680206656456 0.662725605070591 0.6640734076499939 0.6656498946249485 0.667494997382164 0.6695906519889832
          0.6717639863491058 0.6740304231643677 0.6764207631349564 0.6789301484823227 0.6815205439925194 0.6842038817703724
          0.6870164051651955 0.6898939795792103 0.6927954256534576 0.6957025267183781 0.6986484564840794 0.7016336396336555
          0.704735055565834 0.7078992314636707 0.7110347636044025 0.7140346728265285 0.7168617136776447 0.7197202853858471
          0.722665399312973 0.7256595864892006 0.7284605652093887 0.7312391698360443 0.7340014949440956 0.7366186305880547
          0.7401070185005665 0.7440050356090069 0.7470455095171928 0.7493305467069149 0.7515901438891888 0.7545463927090168
          0.7577848322689533 0.7611501775681973 0.7645130269229412 0.767522007226944 0.770278163254261 0.7728128880262375
          0.7750643864274025 0.7770777978003025 0.7788985520601273 0.7805334739387035 0.7819776013493538 0.7836200036108494
          0.7880445718765259 0.7792027108371258 0.7762870416045189 0.77301125228405 0.7725588791072369 0.7750691697001457
          0.7786270417273045 0.7830019667744637 0.7894205525517464 0.7990591451525688 0.7821770384907722 0.7875669747591019
          0.7885256558656693 0.8105712980031967 0.8165517598390579 0.8150726705789566 0.8111079260706902 0.7697332985699177
          0.7677821218967438 0.7660989873111248 0.7644202560186386 0.762779925018549 0.7611671350896358 0.7595592960715294
          0.7579806596040726 0.7564420029520988 0.7549346201121807 0.753440372645855 0.7519862614572048 0.7505742833018303
          0.7492028251290321 0.747861634939909 0.7465587705373764 0.7453018389642239 0.6964585185050964 0.6928972527384758
          0.6893144398927689 0.6856928244233131 0.6822037175297737 0.6789674013853073 0.6759060099720955 0.6729670688509941
          0.6701378524303436 0.6674916446208954 0.6651127710938454 0.6631408706307411 0.6617226749658585 0.6608909741044044
          0.6605972349643707 0.6606664136052132 0.6611287593841553 0.6620316356420517 0.6633286103606224 0.664961539208889
          0.6668287701904774 0.6689225286245346 0.6712282486259937 0.6737197376787663 0.6763488762080669 0.6790713146328926
          0.6818687543272972 0.6848542019724846 0.687881838530302 0.6909126043319702 0.6941205374896526 0.6974438093602657
          0.7007710784673691 0.7040362358093262 0.7073343805968761 0.7106532827019691 0.714070051908493 0.7176038436591625
          0.7210607714951038 0.7243064045906067 0.727420948445797 0.7304974347352982 0.7337502464652061 0.7370407916605473
          0.7402687668800354 0.7433495409786701 0.7464703507721424 0.7494372129440308 0.7529368847608566 0.7572393454611301
          0.760720856487751 0.7634804099798203 0.7655790969729424 0.7682681195437908 0.7716898433864117 0.7750796340405941
          0.7783686965703964 0.7812429443001747 0.783718790858984 0.7859338596463203 0.7878533490002155 0.7895837984979153
          0.7911303341388702 0.7924752980470657 0.79354128241539 0.7951003052294254 0.7944813445210457 0.7839902527630329
          0.7790528945624828 0.7773271426558495 0.7783598378300667 0.7817149199545383 0.7857552915811539 0.7918207459151745
          0.7996226400136948 0.7949730604887009 0.7698187381029129 0.793231800198555 0.7988179996609688 0.8241802006959915
          0.8230153098702431 0.8205609172582626 0.8092393651604652 0.7741408906877041 0.7721661180257797 0.7702951654791832
          0.7684423252940178 0.7666303627192974 0.764836598187685 0.7630539946258068 0.7613006755709648 0.7595987617969513
          0.757956475019455 0.7563653774559498 0.7548298239707947 0.753344688564539 0.7518977411091328 0.7504838779568672
          0.7491052821278572 0.7477644570171833 0.6934478878974915 0.6898143589496613 0.6861521974205971 0.6825573369860649
          0.6792801767587662 0.6762057766318321 0.6732899770140648 0.6704787313938141 0.6678694486618042 0.6654545813798904
          0.6633862182497978 0.661805659532547 0.6608428433537483 0.6605143398046494 0.6607473567128181 0.6614204049110413
          0.6625267863273621 0.66410106793046 0.6660497561097145 0.6683061346411705 0.6707936674356461 0.6734671294689178
          0.676263939589262 0.6791695430874825 0.6822643652558327 0.6854640915989876 0.6886637322604656 0.6919586323201656
          0.695375345647335 0.698799591511488 0.7023734152317047 0.7061366997659206 0.709841251373291 0.7134570814669132
          0.7170947045087814 0.7207439430058002 0.7244871780276299 0.7282937206327915 0.7320293039083481 0.7356282472610474