<VTKFile type="PolyData" version="1.0" byte_order="LittleEndian" header_type="UInt64">
  <PolyData>
    <Piece NumberOfPoints="10000" NumberOfVerts="0" NumberOfLines="0" NumberOfStrips="0" NumberOfPolys="9801">
      <PointData>
        <DataArray type="Float32" Name="zvalue" NumberOfComponents="1" format="ascii" RangeMin="0.5864429175853729" RangeMax="2.4111238420009613">
          0.9671706482768059 0.9753764569759369 0.9835354760289192 0.9917108863592148 0.9999848008155823 1.0083049833774567
          1.0166138410568237 1.0249287337064743 1.0332579091191292 1.0416912510991096 1.0500136390328407 1.0580761209130287
          1.0661380887031555 1.0742357969284058 1.0822934061288834 1.0901918411254883 1.0982036665081978 1.1061204224824905
          1.1139914095401764 1.12170822173357 1.1291263476014137 1.1365028396248817 1.1438271254301071 1.1514579206705093
          1.158420093357563 1.1652426198124886 1.1720879599452019 1.205762818455696 1.238999292254448 1.1918184161186218
          1.2249019369482994 1.2040797919034958 1.2373734712600708 1.2164185345172882 1.2216821685433388 1.227350577712059
          1.2330090552568436 1.238840103149414 1.2447635158896446 1.2503650337457657 1.2553526908159256 1.2600663751363754
          1.2641558051109314 1.2681762725114822 1.2721450477838516 1.2762181460857391 1.2800012975931168 1.2837082892656326
          1.2871779948472977 1.290536716580391 1.2939315438270569 1.297301471233368 1.394310787320137 1.428389623761177
          1.4632013738155365 1.4676265567541122 1.5032702386379242 1.442919909954071 1.415149137377739 1.35180002450943
          1.3217201828956604 1.354598492383957 1.3238204568624496 1.326031357049942 1.3279508650302887 1.3296217918395996
          1.3313615173101425 1.3331653475761414 1.3349206149578094 1.3365609496831894 1.3382032066583633 1.339832454919815
          1.341308742761612 1.3427791446447372 1.3441958874464035 1.3455570191144943 1.3468635529279709 1.3481172919273376
          1.3493195921182632 1.350463092327118 1.3515404164791107 1.352506160736084 1.3534141033887863 1.3542634397745132
          1.3550508916378021 1.3558024019002914 1.3565811216831207 1.3573352098464966 1.3580348640680313 1.3586802333593369
          1.359227940440178 1.3597669303417206 1.3602830618619919 1.3607581108808517 1.3612017333507538 1.3616151362657547
          1.3619990795850754 1.3623550534248352 1.3626802861690521 1.362989217042923 0.9668256863951683 0.9751756191253662
          0.9834677949547768 0.9917899742722511 1.0001677870750427 1.0085836201906204 1.0169820040464401 1.0253798738121986
          1.0337969288229942 1.0422296524047852 1.0506415218114853 1.0589674562215805 1.0671861916780472 1.0753562301397324
          1.0836481377482414 1.0917821899056435 1.1007528454065323 1.1095439717173576 1.1169240400195122 1.1242075264453888
          1.1308642253279686 1.1383153572678566 1.1457713022828102 1.1535447910428047 1.1605373695492744 1.1675332114100456
          1.1744590178132057 1.207597702741623 1.2411236390471458 1.2207391113042831 1.227025605738163 1.2062120586633682
          1.2122146040201187 1.2458548322319984 1.2239506095647812 1.229725532233715 1.235390692949295 1.2110204696655273
          1.247172549366951 1.2529993206262589 1.2583039999008179 1.263029083609581 1.2670162171125412 1.2708418667316437
          1.2746578454971313 1.2177252769470215 1.2823992371559143 1.2859451621770859 1.289260745048523 1.292663961648941
          1.2959123998880386 1.3614595383405685 1.427193284034729 1.4623954892158508 1.4350480139255524 1.5344298481941223
          1.5703441798686981 1.510543704032898 1.4163791090250015 1.3539699465036392 1.3566803634166718 1.3262348622083664
          1.3256994634866714 1.3277141004800797 1.3299089968204498 1.3316381871700287 1.3332877606153488 1.3350292891263962
          1.3367492407560349 1.3383569568395615 1.3399815112352371 1.341550588607788 1.3429855704307556 1.3444202095270157
          1.3458065837621689 1.3471387922763824 1.3484178334474564 1.3496440798044205 1.350809395313263 1.3519076704978943
          1.3528952449560165 1.3538154065608978 1.3546959608793259 1.3555430173873901 1.3563349097967148 1.3571026921272278
          1.3578408062458038 1.358534425497055 1.359156921505928 1.3597010374069214 1.3602380901575089 1.360746756196022
          1.3612140715122223 1.3616509586572647 1.3620575070381165 1.362435296177864 1.3627841025590897 1.3631147146224976
          1.3634126782417297 1.3636705726385117 0.9665436819195747 0.975045382976532 0.983462892472744 0.9919237717986107
          1.0004477947950363 1.00895594060421 1.0174304246902466 1.0259048864245415 1.0344113931059837 1.0429270789027214
          1.0514242202043533 1.0598783567547798 1.0683038085699081 1.0765896663069725 1.084871806204319 1.0937382280826569
          1.1014394313097 1.1096264943480492 1.1172937229275703 1.151934064924717 1.0801534056663513 1.1401918232440948
          1.1476892530918121 1.1553547605872154 1.162672959268093 1.1697665452957153 1.1766909956932068 1.1833969354629517
          1.2166437730193138 1.2517483830451965 1.2022407874464989 1.2084398344159126 1.2436649277806282 1.2204043194651604
          1.2541864216327667 1.2321268320083618 1.2379989251494408 1.2436962574720383 1.2192968875169754 1.2554976046085358
          1.2612044662237167 1.265869840979576 1.2698601633310318 1.2733927965164185 1.2770439386367798 1.280759483575821
          1.2849630117416382 1.2269497960805893 1.1686363816261292 1.233210951089859 1.3600647747516632 1.363494098186493
          1.4298053681850433 1.4026154279708862 1.437826156616211 1.5054469406604767 1.6381755769252777 1.642837718129158
          1.5167778879404068 1.4222245961427689 1.3963375389575958 1.3283434510231018 1.3944763392210007 1.3295769095420837
          1.3318060338497162 1.3336622565984726 1.3351766616106033 1.3368483483791351 1.3385455012321472 1.3401857912540436
          1.3417200446128845 1.343225285410881 1.344647541642189 1.3460471630096436 1.3474015891551971 1.3487058877944946
          1.3499575108289719 1.3511470407247543 1.3522642701864243 1.3532764464616776 1.3542181104421616 1.3551129251718521
          1.3559875041246414 1.3568478375673294 1.3576541244983673 1.3583862036466599 1.3590666055679321 1.3596602231264114
          1.3602013289928436 1.3607318848371506 1.3612306416034698 1.3616898506879807 1.362118810415268 1.3625175207853317
          1.3628875017166138 1.3632390946149826 1.3635656386613846 1.363847553730011 1.3640963435173035 1.3643143624067307
          0.9663069024682045 0.975002832710743 0.9835587292909622 0.9922765791416168 1.0007586479187012 1.009392336010933
          1.0179253965616226 1.0265066847205162 1.0351364761590958 1.0437568947672844 1.052342489361763 1.0608647242188454
          1.0693691447377205 1.0777799487113953 1.0863264128565788 1.094884768128395 1.104329451918602 1.1112664192914963
          1.119006060063839 1.1266393885016441 1.160406269133091 1.143522560596466 1.1497349813580513 1.1572117283940315
          1.1648076847195625 1.171986199915409 1.1789414808154106 1.1856874451041222 1.2191247567534447 1.2257520854473114
          1.2046130821108818 1.210742548108101 1.2169068232178688 1.2514434978365898 1.2287117689847946 1.262826681137085
          1.240531213581562 1.2464072108268738 1.2522284239530563 1.2580244839191437 1.2637708634138107 1.2686672806739807
          1.2724954038858414 1.2758838534355164 1.2794223874807358 1.283121258020401 1.164486601948738 1.1676817387342453
          1.2018099874258041 1.2356972694396973 1.3324410915374756 1.397329792380333 1.3702875673770905 1.405395969748497
          1.4407537281513214 1.5410407036542892 1.676010176539421 1.6788123548030853 1.65115088224411 1.45746748149395
          1.460689663887024 1.3637892603874207 1.400209367275238 1.399209886789322 1.3336061835289001 1.3357124626636505
          1.3370940387248993 1.338623195886612 1.3403565138578415 1.341982439160347 1.3434208780527115 1.3448827117681503
          1.3462917059659958 1.347658097743988 1.3489827811717987 1.3502579778432846 1.3514691442251205 1.3526096493005753
          1.3536461889743805 1.35461063683033 1.3555278778076172 1.356420323252678 1.35731603205204 1.358175590634346
          1.3589536547660828 1.3596402257680893 1.3602003008127213 1.3607316464185715 1.3612494319677353 1.361736536026001
          1.36218623816967 1.3626061528921127 1.36299566924572 1.363366276025772 1.3637148886919022 1.3640264570713043
          1.3642967343330383 1.3645353466272354 1.3647427260875702 1.3649146258831024 0.965977855026722 0.9747157692909241
          0.9833562150597572 0.9920387119054794 1.0006783232092857 1.009882166981697 1.0184927582740784 1.0271681025624275
          1.0359409973025322 1.0446816012263298 1.0533573627471924 1.061955563724041 1.070520929992199 1.0789626985788345
          1.0876932889223099 1.0966457203030586 1.105094499886036 1.1147923916578293 1.1209871545433998 1.1284686625003815
          1.136333167552948 1.1455001905560493 1.1529009938240051 1.1593178063631058 1.193728283047676 1.1742300242185593
          1.1813962161540985 1.188385434448719 1.1949818506836891 1.2551345601677895 1.2617289498448372 1.2406273111701012
          1.2193595990538597 1.2534794211387634 1.2312756106257439 1.2372547090053558 1.2716664150357246 1.2489521205425262
          1.2548795491456985 1.2304358929395676 1.2663476169109344 1.2712137550115585 1.2749911844730377 1.278485268354416
          1.282009020447731 1.2240724563598633 1.2282465249300003 1.2010964304208755 1.1417700201272964 1.2688747942447662
          1.2099961340427399 1.4006949961185455 1.4045120626688004 1.4405571818351746 1.4762285649776459 1.5777606666088104
          1.7117702066898346 1.715810477733612 1.657317392528057 1.4959158971905708 1.4301268309354782 1.3996288925409317
          1.3687608689069748 1.4697070121765137 1.4038851261138916 1.3375744968652725 1.3392489850521088 1.3405544608831406
          1.3420929908752441 1.343707948923111 1.345114290714264 1.346525490283966 1.3479124307632446 1.3492511212825775
          1.3505465686321259 1.351779118180275 1.3529403060674667 1.3540007323026657 1.3549917936325073 1.3559323251247406
          1.356846272945404 1.357773318886757 1.358655720949173 1.3594835847616196 1.3602313548326492 1.3607848286628723
          1.3612974137067795 1.3617950230836868 1.3622663021087646 1.3627042323350906 1.3631135821342468 1.3635007292032242
          1.3638696521520615 1.3642080128192902 1.364501714706421 1.364760935306549 1.364988312125206 1.3651822656393051
          1.3653414249420166 1.3654653429985046 0.9656065627932549 0.9744954109191895 0.9832036644220352 0.9919210895895958
          1.0008922666311264 1.0098386779427528 1.0191587135195732 1.0278938338160515 1.036788061261177 1.0456718802452087
          1.0544664785265923 1.0631665363907814 1.0717998519539833 1.0802930518984795 1.0889133289456367 1.0985186100006104
          1.1069036051630974 1.116275779902935 1.1255295425653458 1.130984142422676 1.1383598297834396 1.1465020179748535
          1.1551272049546242 1.1617127433419228 1.1701405569911003 1.1765939071774483 1.1838407292962074 1.1904031485319138
          1.1976211220026016 1.2585674077272415 1.209380604326725 1.243363656103611 1.2218551114201546 1.2279653251171112
          1.2624593824148178 1.240018017590046 1.2458507120609283 1.3095533698797226 1.2575415074825287 1.26371169090271
          1.2385810166597366 1.2737629860639572 1.2773551046848297 1.2810651063919067 1.2847847044467926 1.2735148221254349
          1.2039081901311874 1.0789999440312386 1.1754762679338455 1.115635871887207 1.2129239290952682 1.341287836432457
          1.3447825014591217 1.3809697329998016 1.4173772037029266 1.4561660885810852 1.5884169936180115 1.6905325204133987
          1.5976129919290543 1.536157302558422 1.3383854776620865 1.3720383197069168 1.3068896234035492 1.3738561570644379
          1.4064521342515945 1.3741056323051453 1.375987857580185 1.3426498621702194 1.3439305871725082 1.3453612923622131
          1.3468344658613205 1.3481550961732864 1.3495137244462967 1.3508234471082687 1.3520736694335938 1.353253960609436
          1.3543391823768616 1.3553556352853775 1.3563243597745895 1.3572646975517273 1.3582206070423126 1.3591240495443344
          1.3599781095981598 1.3607734739780426 1.3613778352737427 1.361901894211769 1.3623768538236618 1.3628249317407608
          1.363246127963066 1.3636492043733597 1.3640339374542236 1.3643919974565506 1.3647147715091705 1.3649938702583313
          1.3652408421039581 1.3654562532901764 1.3656362146139145 1.3657806068658829 1.365890771150589 1.365968570113182
          0.9657268896698952 0.9747289419174194 0.9834614992141724 0.9921635165810585 1.001020684838295 1.0101722404360771
          1.0193594619631767 1.0287100970745087 1.037660889327526 1.0467006787657738 1.0556290447711945 1.0644482374191284
          1.0731709599494934 1.0817597061395645 1.090409554541111 1.0999651998281479 1.1100362539291382 1.1172228008508682
          1.1257315650582314 1.134454533457756 1.141736939549446 1.148871697485447 1.2093545198440552 1.1653478145599365
          1.1719046533107758 1.1790053471922874 1.1312999352812767 1.1927664130926132 1.1997201293706894 1.232936479151249
          1.2125391215085983 1.3011738434433937 1.2244423925876617 1.2305763810873032 1.2659342139959335 1.27151507884264
          1.248659610748291 1.2833072543144226 1.2897414416074753 1.266435295343399 1.2717959880828857 1.2457629442214966
          1.280000850558281 1.2837508022785187 1.2874458730220795 1.234951913356781 1.2018077298998833 1.1435077711939812
          1.0595226138830185 1.2124179005622864 1.2479760348796844 1.3452094346284866 1.4118916541337967 1.4161263406276703
          1.4535628110170364 1.4575879126787186 1.658613994717598 1.698985517024994 1.7024647444486618 1.606732040643692
          1.5105065926909447 1.3445715457201004 1.3438710123300552 1.3117344230413437 1.3789042234420776 1.3116526156663895
          1.378174901008606 1.380009800195694 1.3458390682935715 1.3471758514642715 1.34853595495224 1.3497789055109024
          1.3511012643575668 1.3523611426353455 1.3535466194152832 1.3546593189239502 1.3557010293006897 1.3566975444555283
          1.3576743453741074 1.358655110001564 1.3595820367336273 1.360460564494133 1.3612631261348724 1.3619222193956375
          1.3625051528215408 1.3629921227693558 1.3634193539619446 1.3638247400522232 1.3642193377017975 1.3645887225866318
          1.3649334907531738 1.3652368038892746 1.365503042936325 1.365736946463585 1.3659391403198242 1.3661043643951416
          1.3662326037883759 1.3663278222084045 1.3663804680109024 1.3663926422595978 0.9653765261173248 0.9746075570583344
          0.9836231991648674 0.9924485757946968 1.0014271438121796 1.0105901658535004 1.0198669508099556 1.0293812602758408
          1.03862826526165 1.0477678179740906 1.056835412979126 1.0657879784703255 1.0746310725808144 1.0833801925182343
          1.092179000377655 1.1012465432286263 1.0571883581578732 1.1066476702690125 1.127547912299633 1.1609120517969131
          1.1157463639974594 1.1794010698795319 1.1858304366469383 1.1670569255948067 1.1743485480546951 1.2082716524600983
          1.1329600289463997 1.1953216418623924 1.1459018513560295 1.15151996165514 1.2983853369951248 1.2495068460702896
          1.2269715145230293 1.2332514747977257 1.2680417820811272 1.3027604818344116 1.2810573279857635 1.2863602042198181
          1.2632800936698914 1.2692574262619019 1.2740171998739243 1.2483148723840714 1.2521460056304932 1.2254838347434998
          1.228700578212738 1.2017224356532097 1.2035572901368141 1.2077375054359436 1.1803192049264908 1.1527043506503105
          1.1247157454490662 1.222730379551649 1.352304182946682 1.4207870662212372 1.522712379693985 1.5600462704896927
          1.6636088341474533 1.6852973997592926 1.644036091864109 1.7141413539648056 1.616784505546093 1.3821402713656425
          1.3507538139820099 1.3206796795129776 1.3527709990739822 1.3841014504432678 1.3563423454761505 1.4175540059804916
          1.3477455377578735 1.3489307910203934 1.3503189831972122 1.3514042347669601 1.352662205696106 1.3538451194763184
          1.3549704849720001 1.3560286313295364 1.357052132487297 1.358064889907837 1.3590708822011948 1.3600271940231323
          1.3609288334846497 1.3617363423109055 1.3624262511730194 1.3630563765764236 1.3636024743318558 1.3640501201152802
          1.3644469380378723 1.364818513393402 1.365167424082756 1.3654942065477371 1.365777000784874 1.3660290390253067
          1.366249144077301 1.3664365112781525 1.3665852546691895 1.3666977137327194 1.3667700737714767 1.3667999804019928
          1.3668033480644226 1.3667921274900436 0.9646251425147057 0.9740078076720238 0.9832648113369942 0.9925631508231163
          1.0018323510885239 1.0112106874585152 1.020604431629181 1.0299993380904198 1.039686158299446 1.0489035472273827
          1.0581191256642342 1.067223846912384 1.0762076303362846 1.0850601270794868 1.0940936133265495 1.1034259051084518
          1.112766571342945 1.0694756619632244 1.1145250871777534 1.1633749604225159 1.172030359506607 1.152541782706976
          1.2203192189335823 1.1411647871136665 1.1774744540452957 1.2112423554062843 1.1353595182299614 1.1979162469506264
          1.1484120190143585 1.154211275279522 1.3184924572706223 1.2809258177876472 1.2860821411013603 1.2359330356121063
          1.2422622442245483 1.277461677789688 1.3123688250780106 1.2894760072231293 1.266244262456894 1.272065356373787
          1.2766554057598114 1.281544104218483 1.316193774342537 1.2585399746894836 1.2329460233449936 1.297159105539322
          1.3025575503706932 1.272947758436203 1.2459198385477066 1.1874719820916653 1.2535802200436592 1.1938906535506248
          1.4224577099084854 1.4580459892749786 1.4967309534549713 1.5642521977424622 1.7025943249464035 1.676658272743225
          1.6178533434867859 1.7194739356637 1.655760645866394 1.5928944870829582 1.3541461527347565 1.292032614350319
          1.2597376257181168 1.292155385017395 1.3180436491966248 1.4201881736516953 1.4217603504657745 1.3870129734277725
          1.3519209772348404 1.3531178385019302 1.3541821390390396 1.35530024766922 1.356355369091034 1.357394590973854
          1.3584387600421906 1.3594684898853302 1.3604514449834824 1.361379086971283 1.3621951788663864 1.362909883260727
          1.3635631203651428 1.3641651570796967 1.3646847009658813 1.3650950342416763 1.365446761250496 1.3657736033201218
          1.3660729676485062 1.3663365542888641 1.3665717840194702 1.366776704788208 1.3669468015432358 1.3670795559883118
          1.3671690672636032 1.3672212064266205 1.367229864001274 1.3672229647636414 1.367191344499588 1.3671247363090515
          0.9639929831027985 0.9735498130321503 0.9830178990960121 0.9925307407975197 1.0021947100758553 1.011857233941555
          1.0213123336434364 1.0309099927544594 1.040736734867096 1.0501021668314934 1.059435524046421 1.068684846162796
          1.077811412513256 1.0868197903037071 1.127798743546009 1.053629606962204 1.0626735389232635 1.15242138504982
          1.1493162959814072 1.2096598222851753 1.1740216091275215 1.2104056477546692 1.1672143191099167 1.1739771738648415
          1.2072365805506706 1.1877614930272102 1.1377904415130615 1.200551949441433 1.184267833828926 1.156933568418026
          1.2495391741394997 1.252321183681488 1.2333912998437881 1.267742782831192 1.2451475709676743 1.2801473289728165
          1.2876202166080475 1.351646140217781 1.2692311704158783 1.2748973071575165 1.2794870734214783 1.2840817719697952
          1.288862869143486 1.3230037540197372 1.3888238966464996 1.455561637878418 1.3971451297402382 1.3386356458067894
          1.248768225312233 1.189757976680994 1.2275717556476593 1.2926610112190247 1.4896051287651062 1.3644472658634186
          1.4365245625376701 1.6392865926027298 1.6416601985692978 1.6821542531251907 1.6572594493627548 1.5943949222564697
          1.6961040794849396 1.5962388068437576 1.5014128014445305 1.2965635284781456 1.1928707733750343 1.1937792375683784
          1.2968779802322388 1.3574841395020485 1.460424154996872 1.3893376290798187 1.3904017359018326 1.392189085483551
          1.3557231426239014 1.3567281067371368 1.3577500730752945 1.3588088899850845 1.3598528802394867 1.3608568906784058
          1.3618071973323822 1.3626336455345154 1.3633722215890884 1.3640509694814682 1.3646885454654694 1.3652546852827072
          1.3657332062721252 1.3661022037267685 1.3664073944091797 1.3666772246360779 1.366918295621872 1.3671328872442245
          1.367319718003273 1.3674715608358383 1.3675796687602997 1.3676487058401108 1.3676827102899551 1.3676693439483643
          1.3676501214504242 1.3675980865955353 1.3675107508897781 1.3673880398273468 0.9634380713105202 0.9731910079717636
          0.98288893699646 0.9926180317997932 1.0024505704641342 1.0125296637415886 1.0223263949155807 1.03181853890419
          1.0416827872395515 1.0513169467449188 1.0607742220163345 1.0701733604073524 1.0794750601053238 1.0886935517191887
          1.1277447417378426 1.0872287601232529 1.064717173576355 1.0744832456111908 1.1510850563645363 1.173371896147728
          1.2298189848661423 1.2135130614042282 1.2166916504502296 1.185851350426674 1.2109155133366585 1.1903570517897606
          1.140858255326748 1.20329450070858 1.2087964117527008 1.1880836561322212 1.2494753748178482 1.312764935195446
          1.1779799833893776 1.2719491347670555 1.2481692284345627 1.2832498997449875 1.291394203901291 1.3257383406162262
          1.3017956912517548 1.2778114527463913 1.2824548333883286 1.2869065254926682 1.3233423233032227 1.3584785610437393
          1.4233399033546448 1.4588980972766876 1.463907077908516 1.3775103837251663 1.2851612567901611 1.2252025082707405
          1.2290387526154518 1.2327158749103546 1.4298275858163834 1.4652286916971207 1.4097107499837875 1.545464962720871
          1.5851260125637054 1.7224068939685822 1.6977516859769821 1.703636571764946 1.6849092096090317 1.636983074247837
          1.536049209535122 1.3281923159956932 1.2954484224319458 1.2974941581487656 1.238463670015335 1.3671910762786865
          1.361174501478672 1.3622960969805717 1.4294772744178772 1.4307377487421036 1.3946549445390701 1.358197644352913
          1.3592190891504288 1.3602411299943924 1.3612521588802338 1.3622075468301773 1.3630475103855133 1.363808050751686
          1.3645264357328415 1.365181177854538 1.3657669723033905 1.366293489933014 1.3667376339435577 1.367067888379097
          1.3673104047775269 1.367525339126587 1.3677159249782562 1.3678799718618393 1.368002787232399 1.3680877089500427
          1.3681382685899734 1.368149995803833 1.3681213110685349 1.3680847436189651 1.3680115789175034 1.367902234196663
          1.3677561730146408 1.3675732761621475 0.9629303440451622 0.972907543182373 0.9828537330031395 0.9927756190299988
          1.002735696732998 1.0130324810743332 1.0232254788279533 1.0327669456601143 1.0427422672510147 1.0525981858372688
          1.0621768236160278 1.0717476084828377 1.0812437757849693 1.0906433761119843 1.1003696471452713 1.135184220969677
          1.0955819934606552 1.0755762979388237 1.1135954856872559 1.1489843428134918 1.2060875371098518 1.1903294324874878
          1.2000036537647247 1.1552755907177925 1.1871677860617638 1.2200837507843971 1.1435029953718185 1.2064287588000298
          1.1859463825821877 1.2187201082706451 1.2707705646753311 1.378113679587841 1.2656995430588722 1.186811126768589
          1.280278429389 1.2684672474861145 1.3514550179243088 1.2990533113479614 1.3387967199087143 1.3106012344360352
          1.3157536536455154 1.2898807227611542 1.294331133365631 1.3303914666175842 1.3672083616256714 1.4016700387001038
          1.3411592096090317 1.348242998123169 1.3496326804161072 1.260301798582077 1.2962361425161362 1.3639076873660088
          1.3353525325655937 1.3716619536280632 1.5097489207983017 1.5848590731620789 1.5952588990330696 1.7722066342830658
          1.8037046790122986 1.773002877831459 1.687122382223606 1.6423737704753876 1.541173331439495 1.542724609375
          1.4351776391267776 1.3292794302105904 1.295750692486763 1.3757464736700058 1.3364360928535461 1.3281299322843552
          1.403202012181282 1.3958619683980942 1.39672389626503 1.3978885412216187 1.3607172071933746 1.3616780638694763
          1.3626018464565277 1.363445520401001 1.3642364293336868 1.3649715036153793 1.3656416684389114 1.3662461042404175
          1.366790160536766 1.3672762662172318 1.3676835745573044 1.3679670542478561 1.3681625127792358 1.368323415517807
          1.3684523701667786 1.3685476183891296 1.368608146905899 1.3686369061470032 1.3686241507530212 1.3685822188854218
          1.3685248643159866 1.3684301376342773 1.36829774081707 1.3681271523237228 1.3679131418466568 1.3676562309265137
          0.962455116212368 0.9727669358253479 0.9828300029039383 0.9929180070757866 1.0030231550335884 1.013496071100235
          1.0241360515356064 1.0340330228209496 1.0438488125801086 1.0539273843169212 1.0636719688773155 1.0734418854117393
          1.0831118375062943 1.1177379339933395 1.1271913051605225 1.1370096057653427 1.1470314711332321 1.1113589107990265
          1.113453634083271 1.105529472231865 1.2098432630300522 1.223053127527237 1.2053501531481743 1.2355161681771278
          1.1203625798225403 1.2242147400975227 1.1733135357499123 1.2095561027526855 1.1882296055555344 1.277718462049961
          1.2795333340764046 1.2857202142477036 1.298270083963871 1.2371121495962143 1.224336490035057 1.2899614572525024
          1.3552356511354446 1.3328664749860764 1.3085251301527023 1.3135511428117752 1.3187609165906906 1.323453113436699
          1.359653279185295 1.3008187264204025 1.3368171006441116 1.4041778445243835 1.2814862728118896 1.3169796913862228
          1.3204795271158218 1.2935597747564316 1.330546610057354 1.3676385506987572 1.3391600847244263 1.342429980635643
          1.5162140130996704 1.6219588592648506 1.4333033859729767 1.671248584985733 1.8455451279878616 1.8208258897066116
          1.6856911033391953 1.7492665871977806 1.6473860070109367 1.5519108772277832 1.5404477268457413 1.5090804919600487
          1.392629787325859 1.3652955442667007 1.3668404966592789 1.3300378620624542 1.3596103936433792 1.2939701452851295
          1.3993141800165176 1.400211215019226 1.3625443279743195 1.3630699962377548 1.4047603607177734 1.3646665662527084
          1.365402340888977 1.3660759627819061 1.3666941970586777 1.3672543466091156 1.3677536696195602 1.3681801855564117
          1.3685473799705505 1.3688045293092728 1.368950292468071 1.3690469861030579 1.3691130429506302 1.3691447228193283
          1.3691466450691223 1.369104728102684 1.3690476417541504 1.3689678609371185 1.3688505440950394 1.3686939030885696
          1.3684990853071213 1.3682524263858795 1.3679746687412262 1.367657646536827 0.9721240699291229 0.9842563718557358
          0.9828025177121162 0.9930619224905968 1.0033848509192467 1.014022558927536 1.0250599458813667 1.0354019775986671
          1.0449158921837807 1.0552890375256538 1.065295971930027 1.0752810314297676 1.1111774444580078 1.1198227927088737
          1.129698671400547 1.1396991461515427 1.149608574807644 1.162564568221569 1.1213066279888153 1.090554103255272
          1.1326257809996605 1.2217315956950188 1.2825679704546928 1.185177505016327 1.0548778399825096 1.1998878419399261
          1.2041899859905243 1.2124991565942764 1.191680632531643 1.271583579480648 1.2621659711003304 1.2662039697170258
          1.3307124450802803 1.2513348460197449 1.198556900024414 1.2043694853782654 1.3591256588697433 1.396269291639328
          1.374079942703247 1.347794085741043 1.3220023065805435 1.3574698567390442 1.36241415143013 1.3350677788257599
          1.3391499519348145 1.3770675212144852 1.2850238308310509 1.3209416717290878 1.3563832864165306 1.3278538957238197
          1.2700121626257896 1.2730030417442322 1.3094443157315254 1.3464579805731773 1.5174620002508163 1.592978410422802
          1.5030378699302673 1.6429754793643951 1.8135086745023727 1.9212532490491867 1.6496353521943092 1.6966517493128777
          1.6071347743272781 1.4949290975928307 1.5084252804517746 1.510420173406601 1.4451665356755257 1.4332583248615265
          1.3690668493509293 1.371836319565773 1.3616647869348526 1.3619809597730637 1.3628424555063248 1.36496302485466
          1.3643823862075806 1.3645125329494476 1.3651644140481949 1.3658555746078491 1.3665198534727097 1.3671347349882126
          1.3676977455615997 1.3681946694850922 1.3686303496360779 1.3690042048692703 1.3693195432424545 1.3695547729730606
          1.3696687072515488 1.369704619050026 1.3697026073932648 1.3696696013212204 1.3695934414863586 1.3695180267095566
          1.3694119304418564 1.369268611073494 1.3690877258777618 1.3688624650239944 1.368593156337738 1.368288278579712
          1.3679428845643997 1.3675612211227417 0.9736496806144714 0.9759104922413826 0.9827825427055359 0.9933031275868416
          1.003852367401123 1.0146500393748283 1.0259770601987839 1.0366558656096458 1.0461118966341019 1.0568095371127129
          1.0903603285551071 1.1106395944952965 1.1148925423622131 1.105825498700142 1.1338845938444138 1.1426953002810478
          1.1524767130613327 1.1627577617764473 1.1372420117259026 1.1574877575039864 1.1634605899453163 1.1726991832256317
          1.2068366333842278 1.1863818541169167 1.0194057151675224 1.1470251083374023 1.209230124950409 1.216336838901043
          1.187043197453022 1.235966444015503 1.2939362302422523 1.2997575849294662 1.3340696096420288 1.2272724285721779
          1.2308926582336426 1.1460427716374397 1.3335881233215332 1.3706179708242416 1.3662500083446503 1.3825148195028305
          1.3250864744186401 1.363560065627098 1.3347173631191254 1.3388353437185287 1.3422812223434448 1.2538444995880127