<VTKFile type="PolyData" version="1.0" byte_order="LittleEndian" header_type="UInt64">
  <PolyData>
    <Piece NumberOfPoints="100" NumberOfVerts="0" NumberOfLines="0" NumberOfStrips="0" NumberOfPolys="81">
      <PointData>
        <DataArray type="Float32" Name="zvalue" NumberOfComponents="1" format="ascii" RangeMin="0.5130780786275864" RangeMax="6.1666333973407745">
          1.0199498161673546 0.724427342414856 0.6497536301612854 0.6422613486647606 0.6394499093294144 0.6980155855417252
          1.1198358535766602 0.9628974013030529 2.6290975213050842 5.429272443056107 0.6488359346985817 0.6603804603219032
          0.6570766940712929 0.6432017162442207 0.6344342082738876 0.7660823240876198 1.206453487277031 1.5315486527979374
          4.08475749194622 6.1666333973407745 0.6726932227611542 0.6819480881094933 0.6639958918094635 0.6375691518187523
          0.6360228396952152 0.8872098810970783 1.3062266930937767 3.313011795282364 4.359790325164795 4.883545756340027
          0.6713242679834366 0.681956022977829 0.665914386510849 0.5130780786275864 0.7085360996425152 1.2454956024885178
          2.3200717717409134 3.1921819001436234 3.210666537284851 3.455874666571617 0.6441445052623749 0.6703383401036263
          0.6522238329052925 0.6391879729926586 0.6054650936275721 1.676069751381874 2.033126026391983 2.3081199526786804
          2.2776253493502736 3.548940986394882 0.6346100345253944 0.6727512627840042 0.7047346234321594 0.8800857216119766
          1.0743871182203293 1.5333181768655777 1.413025543326512 1.612847462296486 2.188859060406685 2.946804642677307
          0.6543325632810593 0.6752061247825623 0.7390463575720787 0.7983829006552696 0.7748128101229668 0.7976061031222343
          1.071886233985424 1.346926249563694 1.862963192164898 2.4559242576360703 0.6517969332635403 0.656153492629528
          0.6787385642528534 0.6613323912024498 0.6182683110237122 0.637336328625679 0.8298379965126514 1.1673578396439552
          1.6803986579179764 2.3097438365221024 0.798464797437191 0.6057941243052483 0.6933529153466225 0.6761959791183472
          0.6418831050395966 0.6239302232861519 0.7047368288040161 0.995359942317009 1.164808414876461 1.5816844925284386
          0.6379193514585495 0.6928900107741356 0.7042905241250992 0.6931411549448967 0.6691543385386467 0.6458765864372253
          0.7045921199023724 0.8201964907348156 0.9880428910255432 1.3703060746192932 
        </DataArray>
      </PointData>
      <CellData>
        <DataArray type="Float32" Name="averaged zvalue" NumberOfComponents="1" format="ascii" RangeMin="0.616566811222583" RangeMax="4.873681742697954">
          0.7633983884006739 0.6729095317423344 0.6480733472853899 0.6398367956280708 0.6844955068081617 0.947596812620759
          1.2051838487386703 2.3020752668380737 4.577440213412046 0.6659644264727831 0.6658502835780382 0.6504608634859324
          0.637806979008019 0.7309373132884502 1.0414930963888764 1.8393101571127772 3.322277066297829 4.873681742697954
          0.6769804004579782 0.6734535973519087 0.6201393771916628 0.6238015424460173 0.8693161057308316 1.4397509871050715
          2.5328730400651693 3.5189126394689083 3.9774693213403225 0.6669407840818167 0.6676081456243992 0.6176010677590966
          0.616566811222583 1.0588916367851198 1.818690788000822 2.4633749127388 2.747148434864357 3.123276884900406
          0.65546103566885 0.6750120148062706 0.7190580377355218 0.7997814766131341 1.2223100350238383 1.6638848744914867
          1.8417797461734153 2.096862956183031 2.740557509707287 0.659224996343255 0.6979345921427011 0.7805624008178711
          0.8819171376526356 1.045031052082777 1.203959014324937 1.361171372293029 1.7528989911079407 2.36363778822124
          0.6593722784891725 0.6872861348092556 0.7193750534206629 0.7131991032510996 0.7070058882236481 0.8341666655614972
          1.1040020799264312 1.5144114848226309 2.0772574860602617 0.6780523369088769 0.658509774133563 0.6774049624800682
          0.6494199465960264 0.6303544919937849 0.6989603443071246 0.9243231518194079 1.2519812136888504 1.6841588504612446
          0.6837670709937811 0.6740818936377764 0.6917451433837414 0.6700936444103718 0.6452110633254051 0.6697839396074414
          0.8062213454395533 0.9921019347384572 1.276210468262434 
        </DataArray>
      </CellData>
      <Points>
        <DataArray type="Float32" Name="Points" NumberOfComponents="3" format="ascii" RangeMin="-1.0" RangeMax="6.1666333973407745">
          -1.0 -1.0 1.0199498161673546 -0.7777777777777778 -1.0 0.724427342414856
          -0.5555555555555556 -1.0 0.6497536301612854 -0.33333333333333337 -1.0 0.6422613486647606
          -0.11111111111111116 -1.0 0.6394499093294144 0.11111111111111116 -1.0 0.6980155855417252
          0.33333333333333326 -1.0 1.1198358535766602 0.5555555555555554 -1.0 0.9628974013030529
          0.7777777777777777 -1.0 2.6290975213050842 1.0 -1.0 5.429272443056107
          -1.0 -0.7777777777777778 0.6488359346985817 -0.7777777777777778 -0.7777777777777778 0.6603804603219032
          -0.5555555555555556 -0.7777777777777778 0.6570766940712929 -0.33333333333333337 -0.7777777777777778 0.6432017162442207
          -0.11111111111111116 -0.7777777777777778 0.6344342082738876 0.11111111111111116 -0.7777777777777778 0.7660823240876198
          0.33333333333333326 -0.7777777777777778 1.206453487277031 0.5555555555555554 -0.7777777777777778 1.5315486527979374
          0.7777777777777777 -0.7777777777777778 4.08475749194622 1.0 -0.7777777777777778 6.1666333973407745
          -1.0 -0.5555555555555556 0.6726932227611542 -0.7777777777777778 -0.5555555555555556 0.6819480881094933
          -0.5555555555555556 -0.5555555555555556 0.6639958918094635 -0.33333333333333337 -0.5555555555555556 0.6375691518187523
          -0.11111111111111116 -0.5555555555555556 0.6360228396952152 0.11111111111111116 -0.5555555555555556 0.8872098810970783
          0.33333333333333326 -0.5555555555555556 1.3062266930937767 0.5555555555555554 -0.5555555555555556 3.313011795282364
          0.7777777777777777 -0.5555555555555556 4.359790325164795 1.0 -0.5555555555555556 4.883545756340027
          -1.0 -0.33333333333333337 0.6713242679834366 -0.7777777777777778 -0.33333333333333337 0.681956022977829
          -0.5555555555555556 -0.33333333333333337 0.665914386510849 -0.33333333333333337 -0.33333333333333337 0.5130780786275864
          -0.11111111111111116 -0.33333333333333337 0.7085360996425152 0.11111111111111116 -0.33333333333333337 1.2454956024885178
          0.33333333333333326 -0.33333333333333337 2.3200717717409134 0.5555555555555554 -0.33333333333333337 3.1921819001436234
          0.7777777777777777 -0.33333333333333337 3.210666537284851 1.0 -0.33333333333333337 3.455874666571617
          -1.0 -0.11111111111111116 0.6441445052623749 -0.7777777777777778 -0.11111111111111116 0.6703383401036263
          -0.5555555555555556 -0.11111111111111116 0.6522238329052925 -0.33333333333333337 -0.11111111111111116 0.6391879729926586
          -0.11111111111111116 -0.11111111111111116 0.6054650936275721 0.11111111111111116 -0.11111111111111116 1.676069751381874
          0.33333333333333326 -0.11111111111111116 2.033126026391983 0.5555555555555554 -0.11111111111111116 2.3081199526786804
          0.7777777777777777 -0.11111111111111116 2.2776253493502736 1.0 -0.11111111111111116 3.548940986394882
          -1.0 0.11111111111111116 0.6346100345253944 -0.7777777777777778 0.11111111111111116 0.6727512627840042
          -0.5555555555555556 0.11111111111111116 0.7047346234321594 -0.33333333333333337 0.11111111111111116 0.8800857216119766
          -0.11111111111111116 0.11111111111111116 1.0743871182203293 0.11111111111111116 0.11111111111111116 1.5333181768655777
          0.33333333333333326 0.11111111111111116 1.413025543326512 0.5555555555555554 0.11111111111111116 1.612847462296486
          0.7777777777777777 0.11111111111111116 2.188859060406685 1.0 0.11111111111111116 2.946804642677307
          -1.0 0.33333333333333326 0.6543325632810593 -0.7777777777777778 0.33333333333333326 0.6752061247825623
          -0.5555555555555556 0.33333333333333326 0.7390463575720787 -0.33333333333333337 0.33333333333333326 0.7983829006552696
          -0.11111111111111116 0.33333333333333326 0.7748128101229668 0.11111111111111116 0.33333333333333326 0.7976061031222343
          0.33333333333333326 0.33333333333333326 1.071886233985424 0.5555555555555554 0.33333333333333326 1.346926249563694
          0.7777777777777777 0.33333333333333326 1.862963192164898 1.0 0.33333333333333326 2.4559242576360703
          -1.0 0.5555555555555554 0.6517969332635403 -0.7777777777777778 0.5555555555555554 0.656153492629528
          -0.5555555555555556 0.5555555555555554 0.6787385642528534 -0.33333333333333337 0.5555555555555554 0.6613323912024498
          -0.11111111111111116 0.5555555555555554 0.6182683110237122 0.11111111111111116 0.5555555555555554 0.637336328625679
          0.33333333333333326 0.5555555555555554 0.8298379965126514 0.5555555555555554 0.5555555555555554 1.1673578396439552
          0.7777777777777777 0.5555555555555554 1.6803986579179764 1.0 0.5555555555555554 2.3097438365221024
          -1.0 0.7777777777777777 0.798464797437191 -0.7777777777777778 0.7777777777777777 0.6057941243052483
          -0.5555555555555556 0.7777777777777777 0.6933529153466225 -0.33333333333333337 0.7777777777777777 0.6761959791183472
          -0.11111111111111116 0.7777777777777777 0.6418831050395966 0.11111111111111116 0.7777777777777777 0.6239302232861519
          0.33333333333333326 0.7777777777777777 0.7047368288040161 0.5555555555555554 0.7777777777777777 0.995359942317009
          0.7777777777777777 0.7777777777777777 1.164808414876461 1.0 0.7777777777777777 1.5816844925284386
          -1.0 1.0 0.6379193514585495 -0.7777777777777778 1.0 0.6928900107741356
          -0.5555555555555556 1.0 0.7042905241250992 -0.33333333333333337 1.0 0.6931411549448967
          -0.11111111111111116 1.0 0.6691543385386467 0.11111111111111116 1.0 0.6458765864372253
          0.33333333333333326 1.0 0.7045921199023724 0.5555555555555554 1.0 0.8201964907348156
          0.7777777777777777 1.0 0.9880428910255432 1.0 1.0 1.3703060746192932
        </DataArray>
      </Points>
      <Verts>
        <DataArray type="Int64" Name="connectivity" format="ascii" RangeMin="0" RangeMax="99">
        </DataArray>
        <DataArray type="Int64" Name="offsets" format="ascii" RangeMin="1" RangeMax="100">
        </DataArray>
      </Verts>
      <Lines>
        <DataArray type="Int64" Name="connectivity" format="ascii" RangeMin="0" RangeMax="80">
        </DataArray>
        <DataArray type="Int64" Name="offsets" format="ascii" RangeMin="1" RangeMax="81">
        </DataArray>
      </Lines>
      <Strips>
        <DataArray type="Int64" Name="connectivity" format="ascii" RangeMin="0" RangeMax="80">
        </DataArray>
        <DataArray type="Int64" Name="offsets" format="ascii" RangeMin="1" RangeMax="81">
        </DataArray>
      </Strips>
      <Polys>
        <DataArray type="Int64" Name="connectivity" format="ascii" RangeMin="0" RangeMax="80">
          0 1 11 10 1 2 12 11
          2 3 13 12 3 4 14 13
          4 5 15 14 5 6 16 15
          6 7 17 16 7 8 18 17
          8 9 19 18 10 11 21 20
          11 12 22 21 12 13 23 22
          13 14 24 23 14 15 25 24
          15 16 26 25 16 17 27 26
          17 18 28 27 18 19 29 28
          20 21 31 30 21 22 32 31
          22 23 33 32 23 24 34 33
          24 25 35 34 25 26 36 35
          26 27 37 36 27 28 38 37
          28 29 39 38 30 31 41 40
          31 32 42 41 32 33 43 42
          33 34 44 43 34 35 45 44
          35 36 46 45 36 37 47 46
          37 38 48 47 38 39 49 48
          40 41 51 50 41 42 52 51
          42 43 53 52 43 44 54 53
          44 45 55 54 45 46 56 55
          46 47 57 56 47 48 58 57
          48 49 59 58 50 51 61 60
          51 52 62 61 52 53 63 62
          53 54 64 63 54 55 65 64
          55 56 66 65 56 57 67 66
          57 58 68 67 58 59 69 68
          60 61 71 70 61 62 72 71
          62 63 73 72 63 64 74 73
          64 65 75 74 65 66 76 75
          66 67 77 76 67 68 78 77
          68 69 79 78 70 71 81 80
          71 72 82 81 72 73 83 82
          73 74 84 83 74 75 85 84
          75 76 86 85 76 77 87 86
          77 78 88 87 78 79 89 88
          80 81 91 90 81 82 92 91
          82 83 93 92 83 84 94 93
          84 85 95 94 85 86 96 95
          86 87 97 96 87 88 98 97
          88 89 99 98 
        </DataArray>
        <DataArray type="Int64" Name="offsets" format="ascii" RangeMin="1" RangeMax="81">
          4 8 12 16 20 24
          28 32 36 40 44 48
          52 56 60 64 68 72
          76 80 84 88 92 96
          100 104 108 112 116 120
          124 128 132 136 140 144
          148 152 156 160 164 168
          172 176 180 184 188 192
          196 200 204 208 212 216
          220 224 228 232 236 240
          244 248 252 256 260 264
          268 272 276 280 284 288
          292 296 300 304 308 312
          316 320 324 
        </DataArray>
      </Polys>
    </Piece>
  </PolyData>
</VTKFile>
