<VTKFile type="PolyData" version="1.0" byte_order="LittleEndian" header_type="UInt64">
  <PolyData>
    <Piece NumberOfPoints="10000" NumberOfVerts="0" NumberOfLines="0" NumberOfStrips="0" NumberOfPolys="9801">
      <PointData>
        <DataArray type="Float32" Name="zvalue" NumberOfComponents="1" format="ascii" RangeMin="0.5733017511665821" RangeMax="2.178779900074005">
          0.9834380447864532 0.9915496706962585 0.9998692721128464 1.0083650201559067 1.016972504556179 1.0254976451396942
          1.0339334160089493 1.042325109243393 1.0506795644760132 1.0589344948530197 1.0670992210507393 1.0751364901661873
          1.083084873855114 1.090970054268837 1.0987790524959564 1.1064803153276443 1.1143276169896126 1.122130572795868
          1.1298788040876389 1.1376738250255585 1.145445205271244 1.1531855091452599 1.1616108268499374 1.168398767709732
          1.1753367111086845 1.1819171831011772 1.1887482702732086 1.2228373363614082 1.2018461897969246 1.1784903332591057
          1.2963233068585396 1.3032646775245667 1.225435771048069 1.2865697890520096 1.3507252112030983 1.2993667349219322
          1.2750273048877716 1.2119688391685486 1.1207853443920612 1.2041358426213264 1.1242410093545914 1.1804386526346207
          1.182646170258522 1.0663293078541756 0.9425281211733818 1.0384612306952477 0.9190899953246117 1.1382928490638733
          1.2566314786672592 1.2704402655363083 1.305275022983551 1.3412345871329308 1.3455288857221603 1.3826691657304764
          1.383263111114502 1.259289339184761 1.2937048822641373 1.3617157638072968 1.2041782513260841 1.2051746025681496
          1.143823079764843 1.1769929751753807 1.3750199228525162 1.344330221414566 1.3793949037790298 1.3468039333820343
          1.3482166230678558 1.3806239515542984 1.3475636392831802 1.3488779217004776 1.350089743733406 1.3512494713068008
          1.3523338586091995 1.353334754705429 1.3542603701353073 1.3551019132137299 1.355854645371437 1.3565456420183182
          1.3571769893169403 1.3578003644943237 1.358395293354988 1.3589581996202469 1.3594930917024612 1.3600559532642365
          1.3605986088514328 1.3611088544130325 1.3615900874137878 1.361954540014267 1.3622669577598572 1.3625373095273972
          1.3627694696187973 1.3629655987024307 1.3631265759468079 1.363261878490448 1.3633913844823837 1.363482654094696
          1.3635190725326538 1.3635178208351135 1.3634864389896393 1.3634207248687744 0.9828950315713882 0.9912430495023727
          0.9997459575533867 1.0083570703864098 1.017082840204239 1.0257325917482376 1.0342940166592598 1.0428078174591064
          1.0512837767601013 1.0596592351794243 1.0679359287023544 1.0760644972324371 1.0841079354286194 1.0920858532190323
          1.0999550372362137 1.1077471747994423 1.115698978304863 1.1235764026641846 1.131419986486435 1.1392831802368164
          1.1470798179507256 1.1548507511615753 1.1629650443792343 1.1966092362999916 1.177362360060215 1.1840688064694405
          1.1909569278359413 1.2215955927968025 1.204101525247097 1.2374771535396576 1.2146289348602295 1.288380853831768
          1.198054201900959 1.2881065383553505 1.3533552214503288 1.3318150416016579 1.309513047337532 1.2892810851335526
          1.124139491468668 1.115112081170082 1.059366337954998 1.0255495384335518 1.2067853286862373 1.0817360281944275
          1.0143578872084618 1.0799494981765747 1.04393320530653 0.9835411459207535 1.082515294663608 1.241565354168415
          1.3717223852872849 1.3444096446037292 1.442427545785904 1.4170227348804474 1.481834813952446 1.325183905661106
          1.2961621060967445 1.3971212208271027 1.3698479980230331 1.273805059492588 1.1765610873699188 1.1788416430354118
          1.3776725232601166 1.313016414642334 1.3459677696228027 1.348146915435791 1.4153433442115784 1.3829702734947205
          1.349244624376297 1.3505182713270187 1.3516985923051834 1.3528078943490982 1.3538132309913635 1.3547532558441162
          1.3556447923183441 1.3564651310443878 1.357193574309349 1.357824444770813 1.3584154546260834 1.3589807748794556
          1.3595207780599594 1.3600393384695053 1.3605987876653671 1.3611299395561218 1.3616307973861694 1.3620984554290771
          1.362452745437622 1.362759605050087 1.3630230724811554 1.3632471561431885 1.363434910774231 1.3635878264904022
          1.3637139946222305 1.3638377338647842 1.3639196008443832 1.3639449924230576 1.363931491971016 1.3638884872198105
          1.3638139814138412 1.3637097924947739 0.982433944940567 0.9909268617630005 0.9996331483125687 1.0083631500601768
          1.0172048211097717 1.0259832590818405 1.0346777215600014 1.0433176308870316 1.0519195646047592 1.060418039560318
          1.0688042044639587 1.077030897140503 1.0851704701781273 1.0932425037026405 1.1011765077710152 1.1090564131736755
          1.1171101182699203 1.1250583603978157 1.1329966485500336 1.1409357860684395 1.1487867683172226 1.1565905064344406
          1.164527304470539 1.1985377669334412 1.2057818099856377 1.1861413046717644 1.1928874552249908 1.1992221772670746
          1.2330265864729881 1.2405241429805756 1.2466986253857613 1.166784293949604 1.1703289523720741 1.2907623648643494
          1.300456441938877 1.363976165652275 1.3409769237041473 1.2664915099740028 1.0493098609149456 1.0531928353011608
          1.0244841650128365 1.0820467546582222 1.0726506412029266 0.944711908698082 1.0089236199855804 0.8891824521124363
          1.0060163959860802 1.0824038237333298 1.1158370450139046 1.2134452387690544 1.280269242823124 1.3476202934980392
          1.4587505459785461 1.5456454157829285 1.5190250128507614 1.39461799710989 1.3001013100147247 1.3057233095169067
          1.3420175090432167 1.2764405757188797 1.2120044082403183 1.279031753540039 1.3464015275239944 1.3149536103010178
          1.2831790000200272 1.3500951081514359 1.3836029022932053 1.3892468363046646 1.3508341908454895 1.3520560264587402
          1.3532505482435226 1.354310691356659 1.3552663624286652 1.356162652373314 1.3570129126310349 1.357806921005249
          1.3585170060396194 1.359112486243248 1.3596501648426056 1.3601560145616531 1.3606528639793396 1.3611969947814941
          1.3617103099822998 1.3621978014707565 1.3626430332660675 1.3629853576421738 1.3632836788892746 1.3635409474372864
          1.3637546002864838 1.363931804895401 1.3640745431184769 1.3641927391290665 1.3643063455820084 1.3643772453069687
          1.3643904030323029 1.3643637001514435 1.3643082678318024 1.364223688840866 1.3641056418418884 1.3639481663703918
          0.9819579496979713 1.002029187977314 0.9995190873742104 1.0083805918693542 1.0173442214727402 1.0262472480535507
          1.0350795611739159 1.0438564270734787 1.0525885373353958 1.0612120926380157 1.0697045475244522 1.0780324190855026
          1.086271546781063 1.0944336503744125 1.1024406403303146 1.1104026287794113 1.1185486987233162 1.1265699937939644
          1.1346053928136826 1.1426295042037964 1.1505436450242996 1.1583922654390335 1.1662454009056091 1.2014798298478127
          1.207914985716343 1.1881959810853004 1.1948571726679802 1.2014039158821106 1.263592004776001 1.269595094025135
          1.2479342818260193 1.2546316087245941 1.2025833502411842 1.1779129430651665 1.240346260368824 1.3348672688007355
          1.311022013425827 1.3689598962664604 0.9912049323320389 1.1134277246892452 1.059300061315298 1.0641015991568565
          1.0705276057124138 1.043046709150076 0.9805252701044083 0.9826353639364243 1.080803893506527 1.1477690860629082
          1.1499305441975594 1.279504083096981 1.1860968135297298 1.2251896932721138 1.2592977359890938 1.2998866303823888
          1.2987058982253075 1.3064491599798203 1.3067249208688736 1.149212308228016 1.2476642280817032 1.1503567099571228
          1.346836417913437 1.2814650386571884 1.2808518707752228 1.3525440096855164 1.2850614339113235 1.4170913398265839
          1.3847250938415527 1.386853352189064 1.3523153513669968 1.3535544872283936 1.3546956032514572 1.3557433933019638
          1.3566932827234268 1.3575600534677505 1.3583697825670242 1.359139695763588 1.3598141223192215 1.3603866398334503
          1.3608783185482025 1.3613543659448624 1.3618653267621994 1.3623511344194412 1.3628177046775818 1.363234966993332
          1.3635604977607727 1.3638472259044647 1.3640921711921692 1.3642955869436264 1.3644598871469498 1.364593967795372
          1.3646984249353409 1.364800289273262 1.364858478307724 1.3648578375577927 1.364816352725029 1.364747330546379
          1.3646514862775803 1.3645181953907013 1.3643450438976288 1.3641304671764374 0.9814634695649147 0.9908943548798561
          0.9993961900472641 1.0084025785326958 1.0174943804740906 1.0265293270349503 1.0354986414313316 1.0444242879748344
          1.0532908961176872 1.0620406717061996 1.0706341192126274 1.0790638402104378 1.087408110499382 1.0956515446305275
          1.1037399396300316 1.1117807626724243 1.1200167909264565 1.1281090378761292 1.1362475454807281 1.1443605348467827
          1.1523543819785118 1.1602759957313538 1.1681515201926231 1.2027480453252792 1.2101334258913994 1.21714948117733
          1.196974903345108 1.2035167440772057 1.2651311680674553 1.3078394383192062 1.2781581580638885 1.322045959532261
          1.2628776207566261 1.1516405269503593 1.2428973838686943 1.2794476747512817 1.2540206909179688 1.2876449823379517
          1.0921661034226418 1.1503269858658314 1.062996692955494 1.0664230808615685 0.916932144202292 1.004985939245671
          1.0787032819353044 0.9863427984528244 1.1762283071875572 1.2117808684706688 1.184590645134449 1.2845021411776543
          1.4131524711847305 1.259415466338396 1.391098503023386 1.2657170253805816 1.3024420030415058 1.3061814457178116
          1.248323254287243 1.3158765062689781 1.2841729149222374 1.1220200061798096 1.2504331097006798 1.318071961402893
          1.3515551686286926 1.354947417974472 1.3520628809928894 1.419189304113388 1.3863198161125183 1.3878480941057205
          1.3537352085113525 1.3549357056617737 1.3560613840818405 1.3571151494979858 1.358077049255371 1.3589364886283875
          1.3597279489040375 1.3604549169540405 1.361091747879982 1.3616438508033752 1.3621401488780975 1.3626220226287842
          1.3630703389644623 1.3635048568248749 1.363884836435318 1.3641861379146576 1.364455983042717 1.36468306183815
          1.3648748695850372 1.3650267571210861 1.365146353840828 1.3652348816394806 1.3653226643800735 1.365366131067276
          1.3653498739004135 1.3652929365634918 1.3652091324329376 1.3650992065668106 1.3649496287107468 1.364758938550949
          1.364517331123352 1.3642328381538391 0.9809606745839119 0.9900918304920197 0.9992557093501091 1.0084213614463806
          1.0176484733819962 1.026824489235878 1.0359445288777351 1.0450165197253227 1.0540273636579514 1.0628974363207817
          1.071589857339859 1.080122135579586 1.0885748788714409 1.0968947187066078 1.1050698086619377 1.1131916493177414
          1.1215067133307457 1.1296797916293144 1.1379245668649673 1.14612927287817 1.1542155519127846 1.1622246205806732
          1.1701485216617584 1.2045257613062859 1.186346098780632 1.2193972766399384 1.2263050228357315 1.2056812271475792
          1.2676478773355484 1.2463833913207054 1.2807296216487885 1.2293901816010475 1.2938041016459465 1.2412492781877518
          1.3061463534832 1.3106216341257095 1.345710389316082 1.3206841796636581 1.1815113201737404 1.150990801397711
          1.093652970623225 1.0675556575879455 1.041188882663846 1.0761095392517745 1.1114275646395981 1.0823244382627308
          1.2189475297927856 1.183869630098343 1.4396511241793633 1.4127557277679443 1.3871568366885185 1.4868555217981339
          1.3635016940534115 1.3337790183722973 1.3709211088716984 1.2803898118436337 1.1539620235562325 1.2527485452592373
          1.222937434911728 1.1245112121105194 1.3184466809034348 1.3208893835544586 1.3272651433944702 1.3218317180871964
          1.3541136384010315 1.4218364506959915 1.352413833141327 1.3537134528160095 1.3550402969121933 1.3562124967575073
          1.3573593497276306 1.358427956700325 1.3594037890434265 1.3602924048900604 1.3610738068819046 1.3617414236068726
          1.362351581454277 1.3629325330257416 1.363450825214386 1.3638832420110703 1.3642783015966415 1.3646095395088196
          1.3648762106895447 1.3651174753904343 1.3653241693973541 1.3654982298612595 1.365634173154831 1.3657355159521103
          1.3658053874969482 1.3658768683671951 1.365902617573738 1.3658694475889206 1.3657954782247543 1.3656950742006302
          1.3655690550804138 1.365401491522789 1.3651837706565857 1.3649210631847382 1.364616185426712 1.3642601519823074
          0.9804451316595078 0.9897851869463921 0.9990909248590469 1.0084212645888329 1.0178002789616585 1.027131125330925
          1.0364110618829727 1.0456350669264793 1.0547756254673004 1.0637659430503845 1.072559379041195 1.081196591258049
          1.0897545740008354 1.0981484577059746 1.1064146012067795 1.1146208420395851 1.1230111345648766 1.1312747821211815
          1.1396276578307152 1.1479283645749092 1.156115561723709 1.1642277389764786 1.1722038239240646 1.1799691244959831
          1.18845783919096 1.2220924124121666 1.228507973253727 1.2079558297991753 1.2427116557955742 1.221031479537487
          1.227384701371193 1.2618115097284317 1.2680717408657074 1.215066909790039 1.249392256140709 1.3437891975045204
          1.2888136431574821 1.3240495771169662 1.2686425000429153 1.1225870698690414 1.1279242406599224 1.1012787111103535
          1.104471658822149 1.114708384964615 1.2975999936461449 1.2705169469118118 1.181840419769287 1.2172881439328194
          1.4439379200339317 1.3850869247689843 1.3948354870080948 1.3947040140628815 1.3346249721944332 1.3701037056744099
          1.37490676343441 1.1866200044751167 1.2853364497423172 1.2900844067335129 1.2262750193476677 1.1917103230953217
          1.2900535613298416 1.258650466799736 1.1565600484609604 1.3238761574029922 1.356158435344696 1.3877715319395065
          1.3536663055419922 1.3549803048372269 1.356247439980507 1.3574084341526031 1.3585768789052963 1.3596763610839844
          1.3606883138418198 1.3615973889827728 1.3623771369457245 1.3630251586437225 1.3636531978845596 1.3642494827508926
          1.3647462278604507 1.3651448637247086 1.3654299229383469 1.3656528145074844 1.3658552318811417 1.3660315722227097
          1.3661744743585587 1.3662886172533035 1.3663660287857056 1.3664133846759796 1.3664659261703491 1.3664714992046356
          1.3664195239543915 1.366326481103897 1.3662089854478836 1.3660634756088257 1.3658692836761475 1.3656279891729355
          1.365343615412712 1.365016594529152 1.3646359145641327 1.364203467965126 0.9799014776945114 0.9894403666257858
          0.9988985508680344 1.0083979219198227 1.0179479643702507 1.027439869940281 1.0368764698505402 1.0462460070848465
          1.0555021688342094 1.0646109580993652 1.0735090970993042 1.082253947854042 1.0909094661474228 1.0993824750185013
          1.1077444329857826 1.1160457283258438 1.1245126649737358 1.1328893154859543 1.1413619592785835 1.1497788205742836
          1.158092349767685 1.1663149818778038 1.174314260482788 1.1821062937378883 1.2167583480477333 1.1979987099766731
          1.2308674529194832 1.2377815917134285 1.2252579256892204 1.2234675213694572 1.229817271232605 1.2659434527158737
          1.2702948674559593 1.2177028730511665 1.2807734310626984 1.3159115090966225 1.2327097579836845 1.2969700694084167
          1.2752329856157303 1.3088867738842964 1.220024041365832 1.1848124563694 1.2353595271706581 1.2658051662147045
          1.3386110714636743 1.2421105075627565 1.2173162028193474 1.2224313784390688 1.3210967034101486 1.390141140203923
          1.3958785980939865 1.3675277382135391 1.342582680284977 1.2149527966976166 1.2501799836754799 1.2242649868130684
          1.2582965679466724 1.1944466829299927 1.2637739852070808 1.327869951725006 1.1933851018548012 1.1965116113424301
          1.2947789803147316 1.325921356678009 1.3581009730696678 1.3896005004644394 1.3550223857164383 1.356201246380806
          1.3574252426624298 1.3585541993379593 1.3597239255905151 1.3608610332012177 1.3619109839200974 1.362842082977295
          1.3636311888694763 1.3643500059843063 1.3649871200323105 1.3655501902103424 1.3660323172807693 1.3663375824689865
          1.366533637046814 1.3666870594024658 1.3668188899755478 1.3669204860925674 1.366997390985489 1.3670463860034943
          1.3670645505189896 1.3670935928821564 1.3670756965875626 1.3670024275779724 1.366888627409935 1.3667519241571426
          1.366579532623291 1.3663588017225266 1.3660949617624283 1.365787386894226 1.3654341995716095 1.3650240302085876
          1.3645605444908142 1.364054560661316 0.9793208241462708 0.9890680089592934 0.9986946135759354 1.008351780474186
          1.0180686861276627 1.0277260318398476 1.0373079925775528 1.0468034595251083 1.0561731979250908 1.065394975244999
          1.074398785829544 1.0832535326480865 1.0920041427016258 1.1005708798766136 1.1090406477451324 1.1174590960144997
          1.1260281130671501 1.1345533430576324 1.143174186348915 1.1517377123236656 1.1601958572864532 1.1684880256652832
          1.176544338464737 1.1843947544693947 1.2189071625471115 1.199883684515953 1.2642443105578423 1.2403253465890884
          1.2194905653595924 1.2259978950023651 1.2323756739497185 1.2960018664598465 1.2761180400848389 1.3084080070257187
          1.2836428433656693 1.2600121200084686 1.2671941965818405 1.329722449183464 1.3789335936307907 1.430176854133606
          1.283535361289978 1.1349281799048185 1.2041773423552513 1.3369281850755215 1.4406122379004955 1.2459674701094627
          1.2314352057874203 1.2893605194985867 1.2619062094017863 1.331921461969614 1.5280403569340706 1.4045233577489853
          1.313249334692955 1.1547353491187096 1.0922418981790543 1.1599129140377045 1.2956569641828537 1.263174220919609
          1.3316465988755226 1.3314964398741722 1.1975594386458397 1.2301386669278145 1.2968436405062675 1.3279311656951904
          1.3240264728665352 1.3912801295518875 1.3563435524702072 1.357456773519516 1.3586112558841705 1.3596813678741455
          1.360836699604988 1.3619745075702667 1.3630436062812805 1.3639971911907196 1.364882454276085 1.3656512796878815
          1.3662899732589722 1.3668287545442581 1.367204561829567 1.3674689382314682 1.3676186054944992 1.367702916264534
          1.3677560985088348 1.367783471941948 1.367791399359703 1.367770403623581 1.3677670657634735 1.3677196502685547
          1.3676210343837738 1.3674864768981934 1.3673210442066193 1.3671194463968277 1.3668749183416367 1.3665861040353775
          1.3662536442279816 1.3658725321292877 1.3654248416423798 1.364934355020523 1.3643955886363983 1.3637819290161133
          0.9787569940090179 0.9886820167303085 0.9984738305211067 1.0082693323493004 1.0181317627429962 1.0279481336474419
          1.0376558005809784 1.0472737476229668 1.0567628517746925 1.0660946443676949 1.075209580361843 1.0841857120394707
          1.0930455550551414 1.1017346382141113 1.110340341925621 1.118909627199173 1.1276230812072754 1.1363390684127808
          1.145136520266533 1.1538583859801292 1.1624420657753944 1.1707980558276176 1.1789615228772163 1.1868655979633331
          1.221567377448082 1.2020571157336235 1.2645754963159561 1.2739089354872704 1.2221374586224556 1.228669822216034
          1.2350831851363182 1.2704847604036331 1.3083695769309998 1.31300687789917 1.260396346449852 1.2662275359034538
          1.237265706062317 1.3352062404155731 1.4844578951597214 1.3180849105119705 1.2864800468087196 1.2306243577040732
          1.1417015856131911 1.1402351036667824 1.0985940098762512 1.1587981805205345 1.2766665741801262 1.3606976196169853
          1.3635602071881294 1.401798889040947 1.4977785050868988 1.3147427141666412 1.253383256494999 1.0972950533032417
          1.06485765427351 1.3284379988908768 1.329047478735447 1.167682759463787 1.3008993193507195 1.2655949890613556
          1.2715834751725197 1.2610448151826859 1.3337726220488548 1.3955887705087662 1.3257280141115189 1.3565887659788132
          1.3575388938188553 1.358811616897583 1.3598276376724243 1.3608130514621735 1.3619333803653717 1.3630276024341583
          1.3640818297863007 1.3651336878538132 1.3660722970962524 1.366869792342186 1.367524117231369 1.367967665195465
          1.368312507867813 1.3685570508241653 1.3686755001544952 1.3686963766813278 1.3686668276786804 1.3686172664165497
          1.3685497492551804 1.3685000091791153 1.3684123754501343 1.3682807385921478 1.368115171790123 1.3679158389568329
          1.3676886856555939 1.3674182146787643 1.367103323340416 1.3667441755533218 1.3663241267204285 1.3658465296030045
          1.365326926112175 1.3647492825984955 1.3641043156385422 1.3634161949157715 0.9782251343131065 0.9882597699761391
          0.998226024210453 1.0081377625465393 1.018119104206562 1.0280643180012703 1.0379008576273918 1.0476469323039055
          1.0572664886713028 1.0667226910591125 1.0759674832224846 1.085091307759285 1.0940938666462898 1.1029451563954353
          1.111723244190216 1.120464026927948 1.1293618083000183 1.1383088678121567 1.1473160833120346 1.1561948582530022
          1.1648862287402153 1.173345409333706 1.1816066056489944 1.189582109451294 1.1970311403274536 1.231519490480423
          1.2682764753699303 1.2734673917293549 1.2250117659568787 1.2315163314342499 1.2378610223531723 1.301715150475502
          1.307623729109764 1.379188895225525 1.3506252020597458 1.327568955719471 1.2572540491819382 1.3665104508399963
          1.3765074759721756 1.3144901990890503 1.4767403602600098 1.3586190044879913 1.1454574055969715 1.2133121071383357
          1.1259190812706947 1.1220776508562267 1.2378368116915226 1.2340262718498707 1.2934738099575043 1.278695035725832
          1.2203898392617702 1.221947729587555 1.2304517328739166 1.0985496565699577 1.1336424872279167 1.0371395200490952
          1.1989727318286896 1.2013662606477737 1.2655694261193275 1.3421405479311943 1.3254090249538422 1.3640091493725777
          1.3000141382217407 1.3322677090764046 1.3634041175246239 1.3578556329011917 1.358864888548851 1.3600815832614899
          1.3611071407794952 1.3619527071714401 1.363000437617302 1.3640448451042175 1.3651422411203384 1.3661895990371704
          1.3671506643295288 1.3679725676774979 1.3685694187879562 1.3690298944711685 1.3693636357784271 1.3695869594812393
          1.369687408208847 1.3696553260087967 1.3695477098226547 1.3694202154874802 1.3693118542432785 1.3691702038049698
          1.3689897507429123 1.3687800019979477 1.3685456365346909 1.3682881444692612 1.3679886907339096 1.36764594912529
          1.3672587722539902 1.3667958825826645 1.3662895113229752 1.365736648440361 1.3651290982961655 1.3644617646932602
          1.363735780119896 1.362945631146431 0.9776872470974922 0.987799659371376 0.9979553520679474 1.007954090833664
          1.0180253610014915 1.028087541460991 1.03806671500206 1.0479529947042465 1.0577187910676003 1.0673243179917336
          1.0767283365130424 1.0860289931297302 1.0952128693461418 1.1042709723114967 1.113279715180397 1.1222748085856438
          1.1315007135272026 1.1407818794250488 1.150018386542797 1.1590134724974632 1.1677322462201118 1.1762040704488754
          1.184470720589161 1.1924181506037712 1.1998654827475548 1.2616453021764755 1.2711751386523247 1.2770129665732384
          1.228044867515564 1.2650789320468903 1.2691317796707153 1.3073400557041168 1.3404912948608398 1.4064518809318542
          1.3816401213407516 1.3302295058965683 1.1830234974622726 1.292180597782135 1.32463239133358 1.336725726723671
          1.3472491949796677 1.2673163264989853 1.2218340621329844 1.2175377304665744 1.0752319395542145 1.0664147371426225
          1.1050455830991268 1.1733914650976658 1.1476583629846573 1.2240516357123852 1.192495983093977 1.1009672498330474
          1.239846806973219 1.0942861139774323 0.9050469622015953 1.1026402153074741 1.136705756187439 1.2657637894153595
          1.3074118196964264 1.372801885008812 1.4408814385533333 1.331105925142765 1.3384256213903427 1.3341118395328522
          1.3584413975477219 1.3591936230659485 1.3602758646011353 1.3613588958978653 1.3626234531402588 1.3630742281675339
          1.3640578389167786 1.3651200532913208 1.3661601692438126 1.367170512676239 1.3681061118841171 1.3688659071922302
          1.3694984018802643 1.369985818862915 1.3703297078609467 1.3705430775880814 1.370630994439125 1.370567724108696
          1.3703923970460892 1.3702156692743301 1.3700053691864014 1.3697648793458939 1.3695015609264374 1.3692205250263214
          1.3689220696687698 1.3685878217220306 1.3682136535644531 1.3677846938371658 1.3672900348901749 1.3667622804641724
          1.366185337305069 1.3655394464731216 1.3648348599672318 1.364060252904892 1.3632341772317886 1.3623540103435516
          0.9771035835146904 0.9873577654361725 0.997661679983139 1.0077446475625038 1.0178852751851082 1.028059609234333
          1.0381978452205658 1.0482486933469772 1.0581759437918663 1.0679488256573677 1.077534131705761 1.0870667174458504
          1.0965522453188896 1.1060331612825394 1.1155629828572273 1.1251471266150475 1.1345161572098732 1.1312236711382866
          1.1125396192073822 1.1353435292840004 1.1687338650226593 1.179345116019249 1.187484048306942 1.1952390745282173
          1.2025806531310081 1.2643860578536987 1.2726411372423172 1.2518697157502174 1.2462226003408432 1.207600325345993
          1.2724690064787865 1.3165219128131866 1.3756978660821915 1.3789591491222382 1.4147842824459076 1.3923308998346329
          1.2936198115348816 1.3491517901420593 1.2878619879484177 1.3171022534370422 1.2452387437224388 1.212566077709198
          1.1512474045157433 1.187184363603592 1.065299641340971 1.2018850818276405 1.0604175180196762 0.9526191400364041
          1.0527636725455523 1.1238080994226038 1.1964763733558357 1.2328074825927615 1.2481715604662895 1.0097574591636658
          0.9385962970554829 1.1461659297347069 1.2406297251582146 1.2349584475159645 1.3414599150419235 1.3765179440379143
          1.4084830358624458 1.3033437132835388 1.3050816804170609 1.4117419943213463 1.3306506723165512 1.3606672435998917
          1.3617177903652191 1.362617239356041 1.3638390749692917 1.364229530096054 1.365179255604744 1.3661652505397797
          1.367139384150505 1.368068054318428 1.3688866198062897 1.3696367740631104 1.3702873885631561 1.3708056956529617
          1.3711757361888885 1.37139593064785 1.3714710474014282 1.3713958412408829 1.371211662888527 1.370938003063202
          1.370627447962761 1.3702985346317291 1.369957610964775 1.369602993130684 1.369222566485405 1.3688097894191742
          1.3683430403470993 1.3678257912397385 1.3672637194395065 1.3666529655456543 1.3659663796424866 1.3652174472808838
          1.3643986284732819 1.3635351657867432 1.3626148998737335 1.3616309612989426 0.9765525162220001 0.9870197623968124
          0.99737598747015 1.0075078308582306 1.0176961496472359 1.0279696583747864 1.0382694080471992 1.048517681658268
          1.0586571246385574 1.0687009319663048 1.0787139683961868 1.0889175832271576 1.0981245189905167 1.0561989396810532
          1.0643971264362335 1.0735102146863937 1.0825032070279121 1.0914376601576805 1.10162103921175 1.1127019673585892
          1.1162229627370834 1.171369507908821 1.1905557215213776 1.1982710734009743 1.2055755704641342 1.2676048949360847
          1.3034170344471931 1.25822464376688 1.2344719842076302 1.2424598634243011 1.1889945343136787 1.3106954097747803
          1.3808830678462982 1.4120998531579971 1.3578197211027145 1.3345867544412613 1.2833365052938461 1.1940524578094482
          1.3522290140390396 1.2309245020151138 1.2851155921816826 1.2393391579389572 1.0280632078647614 1.0668927216902375
          1.0682123615406454 1.170622393488884 1.112844861112535 1.2447904869914055 1.2819758504629135 1.156233108136803
          1.2974456306546926 1.1709950510412455 1.170067273080349 1.079115629196167 1.102028340101242 1.1355168148875237
          1.204970508813858 1.3736936450004578 1.3408340215682983 1.3809896633028984 1.382352575659752 1.3341554254293442
          1.344193659722805 1.4415510073304176 1.3322955220937729 1.3622549623250961 1.3630550354719162 1.3640171438455582
          1.3647956401109695 1.365705132484436 1.3662982732057571 1.3671902120113373 1.3680482804775238 1.3688292056322098
          1.3695845901966095 1.3702988773584366 1.3709352761507034 1.3714632391929626 1.3718552738428116 1.3720930963754654
          1.3721769601106644 1.3721382021903992 1.3719404488801956 1.3715877532958984 1.3711833357810974 1.3707709908485413
          1.3703552335500717 1.3699243068695068 1.3694585114717484 1.3689399063587189 1.3683818876743317 1.3677802681922913
          1.3671329319477081 1.3664061427116394 1.3656051009893417 1.3647482246160507 1.363846406340599 1.362885057926178
          1.361866071820259 1.3608202040195465 0.976065918803215 0.9869702607393265 0.9974128305912018 1.0076500102877617
          1.0299177318811417 1.061989240348339 1.0674524903297424 1.0764827579259872 1.0866487175226212 1.097194567322731
          1.0603716522455215 1.0663440600037575 1.0766205042600632 1.086632065474987 1.0964702516794205 1.1062044650316238
          1.1159789338707924 1.1255157366394997 1.1356487795710564 1.1395316272974014 1.1285381019115448 1.1845666766166687
          1.1935710906982422 1.2013306394219398 1.2086133435368538 1.271278329193592 1.3065579906105995 1.3318218439817429
          1.2008188664913177 1.2166669964790344 1.1902322471141815 1.3142107129096985 1.349078357219696 1.294497236609459
          1.3612598925828934 1.3092023134231567 1.268341451883316 1.381118968129158 1.3873139172792435 1.392377883195877
          1.3620221763849258 1.1751395165920258 1.119745341129601 1.0974523928016424 1.181586590129882 1.1738403900526464