<VTKFile type="PolyData" version="1.0" byte_order="LittleEndian" header_type="UInt64">
  <PolyData>
    <Piece NumberOfPoints="10000" NumberOfVerts="0" NumberOfLines="0" NumberOfStrips="0" NumberOfPolys="9801">
      <PointData>
        <DataArray type="Float32" Name="zvalue" NumberOfComponents="1" format="ascii" RangeMin="0.6586819067597389" RangeMax="1.199301265180111">
          0.6615490391850471 0.6616432964801788 0.6618956923484802 0.6623218804597855 0.662934847176075 0.6637159958481789
          0.6646688804030418 0.6657735332846642 0.6669037714600563 0.6681207790970802 0.6693535447120667 0.6707476526498795
          0.6722623333334923 0.6739169359207153 0.6756673604249954 0.677511602640152 0.6796548962593079 0.6820814982056618
          0.6846645176410675 0.6872549876570702 0.6899368911981583 0.6924993619322777 0.6950689032673836 0.6974957659840584
          0.6999649181962013 0.7024155557155609 0.7047321796417236 0.7070501148700714 0.7093551158905029 0.7115899100899696
          0.7138153910636902 0.7159256041049957 0.7179771661758423 0.7199986577033997 0.7220561876893044 0.7241747975349426
          0.726364254951477 0.7285945937037468 0.7308148443698883 0.7330719381570816 0.7352992370724678 0.7374008148908615
          0.7394779101014137 0.7414537817239761 0.743369534611702 0.7453464493155479 0.7473065853118896 0.7491757050156593
          0.7509392201900482 0.7526674047112465 0.7543874979019165 0.7560412064194679 0.7576534077525139 0.7592508569359779
          0.7607652992010117 0.7622629031538963 0.7637789398431778 0.7652319073677063 0.7665995731949806 0.767916813492775
          0.7691911831498146 0.7704226970672607 0.7716165855526924 0.7727929875254631 0.7740117534995079 0.7752945274114609
          0.7764913961291313 0.7776613608002663 0.778794176876545 0.7799039706587791 0.7810124009847641 0.7820943593978882
          0.783186748623848 0.7842437401413918 0.7852930054068565 0.7863496392965317 0.7873913422226906 0.7883805483579636
          0.7893479093909264 0.7903227210044861 0.7912752404808998 0.7922084480524063 0.7931229174137115 0.794020414352417
          0.7948887869715691 0.7957319095730782 0.7965652495622635 0.7973804622888565 0.798177920281887 0.7989617735147476
          0.7997285947203636 0.8004840686917305 0.8012125715613365 0.801926463842392 0.8026325106620789 0.8033319711685181
          0.8040153235197067 0.8046962469816208 0.8053671941161156 0.806019052863121 0.661547526717186 0.661596953868866
          0.6618068739771843 0.6621943563222885 0.662775382399559 0.6635316610336304 0.6644707769155502 0.6655810177326202
          0.6667174771428108 0.6679496988654137 0.6691930294036865 0.6706141754984856 0.672161728143692 0.6738408505916595
          0.6756319105625153 0.6775576174259186 0.679785706102848 0.6823071092367172 0.6849532276391983 0.687622420489788
          0.6903018057346344 0.692936085164547 0.6955239176750183 0.6979882642626762 0.7005016580224037 0.7029380574822426
          0.7052974030375481 0.7076697647571564 0.7100245803594589 0.7123455852270126 0.7145963534712791 0.7167548388242722
          0.7188285067677498 0.7208965867757797 0.7230305001139641 0.7252419888973236 0.7274726778268814 0.7297900021076202
          0.7320471480488777 0.7343877777457237 0.7366045191884041 0.738729439675808 0.7407925724983215 0.7428008168935776
          0.7447674870491028 0.7468023002147675 0.7486908584833145 0.7505102381110191 0.7522755116224289 0.7540402337908745
          0.7557558864355087 0.7574174180626869 0.7590593695640564 0.7606156691908836 0.7621398717164993 0.7636853456497192
          0.7652125731110573 0.7666351497173309 0.7679853439331055 0.7693018540740013 0.7705639600753784 0.7717799693346024
          0.772972509264946 0.7742224112153053 0.7755134552717209 0.7767212018370628 0.7779073193669319 0.7790529280900955
          0.7801914364099503 0.7813161090016365 0.7824134081602097 0.7835176512598991 0.7845848649740219 0.7856483832001686
          0.78672706335783 0.7877786383032799 0.7887681350111961 0.7897542864084244 0.7907407358288765 0.791706383228302
          0.7926498129963875 0.7935773208737373 0.7944843024015427 0.7953645214438438 0.7962226197123528 0.7970639765262604
          0.7978866919875145 0.7986932620406151 0.7994833141565323 0.8002580776810646 0.8010194227099419 0.8017533421516418
          0.8024763911962509 0.8031942918896675 0.8038955479860306 0.8045933097600937 0.8052789345383644 0.8059717416763306
          0.8066246584057808 0.8072615191340446 0.6615621820092201 0.6615630090236664 0.6617266908288002 0.6620733141899109
          0.6626190915703773 0.663348101079464 0.6642716377973557 0.6653767824172974 0.6665205657482147 0.6677607595920563
          0.669027604162693 0.6704765260219574 0.6720558702945709 0.673761211335659 0.6755963936448097 0.6775981113314629
          0.6799233108758926 0.6825413405895233 0.6852515190839767 0.6880102232098579 0.6906777769327164 0.6934093981981277
          0.6959828063845634 0.6984749808907509 0.7010561004281044 0.703469768166542 0.7058894783258438 0.7083235308527946
          0.7107433900237083 0.7131383419036865 0.7154291793704033 0.7175981104373932 0.7197081446647644 0.7218588218092918
          0.7240800112485886 0.7263556346297264 0.7286929041147232 0.7310228794813156 0.7333883121609688 0.7357420772314072
          0.7379506304860115 0.7400897815823555 0.7421573847532272 0.7441298067569733 0.7462461292743683 0.7481706887483597
          0.7500478699803352 0.7518691793084145 0.7536697313189507 0.7554367482662201 0.7571578770875931 0.758851982653141
          0.7604547813534737 0.762007087469101 0.7635767310857773 0.7651461288332939 0.7666665986180305 0.7680497467517853
          0.7693951949477196 0.7707042843103409 0.7719476521015167 0.773161269724369 0.774452731013298 0.7757297530770302
          0.7769576013088226 0.7781551480293274 0.7793188020586967 0.7804868966341019 0.781627930700779 0.7827408462762833
          0.783849336206913 0.7849389091134071 0.7860208749771118 0.7871135398745537 0.7881643623113632 0.7891645804047585
          0.7901697382330894 0.7911694943904877 0.7921471670269966 0.7931029871106148 0.7940414845943451 0.7949580401182175
          0.7958544120192528 0.7967237681150436 0.7975732237100601 0.7984040603041649 0.7992187812924385 0.800015777349472
          0.800799161195755 0.8015656173229218 0.8023049607872963 0.8030445873737335 0.8037648051977158 0.8044802993535995
          0.8051828294992447 0.8058942183852196 0.8065859079360962 0.807241827249527 0.8078786358237267 0.8084977939724922
          0.6615948230028152 0.661543034017086 0.6616584435105324 0.6619594767689705 0.6624667197465897 0.6631672456860542
          0.664069376885891 0.6651625633239746 0.6663113534450531 0.6675645112991333 0.6688557490706444 0.6703354120254517
          0.671945333480835 0.6736742109060287 0.6755634769797325 0.67765012383461 0.680061362683773 0.6827831789851189
          0.6855818554759026 0.6883973032236099 0.6910809278488159 0.6938674971461296 0.6964483484625816 0.6989861503243446
          0.7015709206461906 0.7040263414382935 0.706514984369278 0.7090100646018982 0.7115160375833511 0.7139326184988022
          0.7162806242704391 0.7184687554836273 0.7206455543637276 0.7228730320930481 0.7251806780695915 0.7275213450193405
          0.7299429774284363 0.7323517799377441 0.734764389693737 0.7371213361620903 0.7393072843551636 0.7414452582597733
          0.7435140758752823 0.7456152066588402 0.747643455862999 0.7495540529489517 0.751433439552784 0.7532730400562286
          0.75509212911129 0.7568637430667877 0.7586224228143692 0.7602810636162758 0.7618754878640175 0.7634595111012459
          0.7650704681873322 0.7666316479444504 0.7681063041090965 0.7694893106818199 0.7708268463611603 0.7721108198165894
          0.7733608558773994 0.7746707946062088 0.7759516090154648 0.7771964147686958 0.7784100100398064 0.7796025425195694
          0.7807905524969101 0.7819483801722527 0.7830771878361702 0.7841952592134476 0.7853129208087921 0.7864032834768295
          0.787509560585022 0.7885576635599136 0.7895716801285744 0.7905956208705902 0.7916086539626122 0.7925975620746613
          0.7935668528079987 0.7945155501365662 0.795441746711731 0.7963572517037392 0.7972356230020523 0.798092670738697
          0.798933245241642 0.7997551932930946 0.8005585446953773 0.8013533651828766 0.8021228313446045 0.8028812855482101
          0.803621731698513 0.8043561279773712 0.8050769716501236 0.8058046847581863 0.8065346926450729 0.8072073832154274
          0.807862788438797 0.8084968030452728 0.8091093972325325 0.8097108975052834 0.6616474762558937 0.6615395843982697
          0.6616008281707764 0.6618553176522255 0.6623189896345139 0.6629875376820564 0.6638633012771606 0.6649384722113609
          0.6660908684134483 0.6673617139458656 0.6686790809035301 0.6701950132846832 0.6718218773603439 0.6735755056142807
          0.6755309700965881 0.6777009591460228 0.6802047416567802 0.6830247938632965 0.6859283298254013 0.6887832134962082
          0.6915320456027985 0.6943155452609062 0.6969319060444832 0.6995281875133514 0.7021143510937691 0.7046221867203712
          0.7071558907628059 0.7097508907318115 0.7123122736811638 0.7148096486926079 0.7171544954180717 0.7193804010748863
          0.7216235101222992 0.7239486947655678 0.7263113260269165 0.7287819087505341 0.7312684059143066 0.7337452173233032
          0.7361673936247826 0.7384588867425919 0.7406836524605751 0.7428608611226082 0.7449617683887482 0.7470755651593208
          0.7490385696291924 0.7509681284427643 0.7528510615229607 0.754722848534584 0.7565385028719902 0.7583498284220695
          0.7600929662585258 0.761732205748558 0.7633422464132309 0.7649853527545929 0.7665842771530151 0.7681201174855232
          0.7695710211992264 0.770951434969902 0.7722667083144188 0.7735651358962059 0.7748883590102196 0.7761797308921814
          0.777438148856163 0.7786721736192703 0.7798965722322464 0.7811028212308884 0.7822777926921844 0.7834226936101913
          0.7845640107989311 0.7856968566775322 0.7868015021085739 0.7879111468791962 0.788960263133049 0.7899928465485573
          0.7910326048731804 0.7920576259493828 0.7930581495165825 0.7940408438444138 0.7949998378753662 0.7959399372339249
          0.7968676537275314 0.7977575734257698 0.7986246645450592 0.799473337829113 0.8003007918596268 0.8011141270399094
          0.801919974386692 0.802697941660881 0.8034651428461075 0.8042193502187729 0.8049598410725594 0.8057022541761398
          0.8064483255147934 0.8071648105978966 0.8078357875347137 0.8084856569766998 0.8091174066066742 0.809732474386692
          0.8103490844368935 0.8109838217496872 0.6617220938205719 0.6615549847483635 0.661559447646141 0.6617605090141296
          0.6621778607368469 0.6628105565905571 0.6636559814214706 0.6647047027945518 0.6658591032028198 0.6671453267335892
          0.6684918478131294 0.6700407490134239 0.6716855987906456 0.6734853386878967 0.675509862601757 0.6777539998292923
          0.6803544387221336 0.6832708641886711 0.68626369535923 0.6891495734453201 0.6919924840331078 0.6947709172964096
          0.6974336951971054 0.7000943943858147 0.7026609554886818 0.7052355855703354 0.7078390121459961 0.7105181887745857
          0.713146261870861 0.7156892791390419 0.7180494740605354 0.7203485891222954 0.7226777151226997 0.7250924631953239
          0.7275383546948433 0.7300912141799927 0.7326346337795258 0.7351410463452339 0.7375591769814491 0.7398472875356674
          0.7421010956168175 0.7443274036049843 0.7464655116200447 0.748491995036602 0.7504788190126419 0.7524038851261139
          0.7543300986289978 0.7562002316117287 0.7580550462007523 0.7598606795072556 0.7615747377276421 0.7632174715399742
          0.7648891359567642 0.7665297612547874 0.7681277766823769 0.7696161642670631 0.7710590288043022 0.7724380195140839
          0.7737679108977318 0.7750907614827156 0.7764080464839935 0.7776869013905525 0.7789419442415237 0.7801991775631905
          0.7814242094755173 0.7826166972517967 0.7837822511792183 0.7849428430199623 0.7860909700393677 0.787210077047348
          0.7883094400167465 0.7893725782632828 0.7904261127114296 0.7914796993136406 0.7925166711211205 0.7935314923524857
          0.7945250645279884 0.7954943999648094 0.7964511886239052 0.7973878011107445 0.7982910424470901 0.7991682142019272
          0.8000230342149734 0.8008588254451752 0.8016836047172546 0.8024981617927551 0.8032932579517365 0.8040680289268494
          0.8048257008194923 0.8055852577090263 0.8063512966036797 0.8071012943983078 0.8077982142567635 0.8084633946418762
          0.8091149553656578 0.8097495064139366 0.810384713113308 0.8110344335436821 0.8116726130247116 0.812299944460392
          0.6618234217166901 0.6615917086601257 0.6615356281399727 0.6616779491305351 0.6620444655418396 0.6626349911093712
          0.6634395495057106 0.664464920759201 0.665619395673275 0.6669143438339233 0.6682996079325676 0.6698782294988632
          0.6715392023324966 0.6733979433774948 0.6754945516586304 0.6778244823217392 0.6805157884955406 0.6835330203175545
          0.6866086348891258 0.6895148903131485 0.6924360916018486 0.6952224224805832 0.6979350671172142 0.7006172835826874
          0.7032315731048584 0.705876387655735 0.708584189414978 0.7113203778862953 0.7140456810593605 0.7165950834751129
          0.71898403018713 0.7213381826877594 0.723755270242691 0.7261927574872971 0.7288285121321678 0.731450192630291
          0.7340493872761726 0.7365546450018883 0.7389796078205109 0.7412825003266335 0.7436401024460793 0.7457965612411499
          0.7479129433631897 0.7499502375721931 0.7519456595182419 0.7539076134562492 0.7558385953307152 0.7577384412288666
          0.759605310857296 0.7613850384950638 0.763082817196846 0.7647822797298431 0.7664686739444733 0.768106997013092
          0.7696588709950447 0.7711379677057266 0.7725969180464745 0.7739762887358665 0.7752900719642639 0.7766219824552536
          0.7779427841305733 0.7792311459779739 0.7805108204483986 0.7817549407482147 0.7829794958233833 0.7841567993164062
          0.7853322699666023 0.7864958569407463 0.7876294478774071 0.7887186110019684 0.7897975072264671 0.7908696457743645
          0.7919370457530022 0.7929860278964043 0.7940153032541275 0.7950197607278824 0.7960029542446136 0.7969727143645287
          0.7979187741875648 0.7988376915454865 0.7997231036424637 0.8005833551287651 0.8014290705323219 0.8022646009922028
          0.803097665309906 0.8038963675498962 0.8046762049198151 0.8054551333189011 0.8062424063682556 0.8070123642683029
          0.8077515438199043 0.8084333837032318 0.8091012164950371 0.8097563236951828 0.8104173541069031 0.8110813573002815
          0.8117331340909004 0.8123734071850777 0.8130025416612625 0.8136212155222893 0.6619552373886108 0.6616525873541832
          0.6615317761898041 0.6616107150912285 0.6619206070899963 0.662461407482624 0.6632250845432281 0.6642230153083801
          0.6653752401471138 0.6666755750775337 0.6681008338928223 0.6697044894099236 0.6713912487030029 0.6733181774616241
          0.6754729673266411 0.677901066839695 0.6806965246796608 0.6838039681315422 0.6869604885578156 0.6898989975452423
          0.6928814202547073 0.6956839263439178 0.6984255015850067 0.7011106982827187 0.7038029804825783 0.7065424695611
          0.7093289420008659 0.71213598549366 0.7148832976818085 0.7174971848726273 0.7199385538697243 0.7223897948861122
          0.7248661518096924 0.7274810075759888 0.7301841154694557 0.7328831627964973 0.735482968389988 0.737999364733696
          0.7404389455914497 0.7428828030824661 0.7451373040676117 0.7472872734069824 0.7493905872106552 0.7514540106058121
          0.7534534335136414 0.7554496377706528 0.7573983296751976 0.7593161314725876 0.7611640095710754 0.7629391327500343
          0.7646642178297043 0.7664002925157547 0.7680795714259148 0.7696984857320786 0.7712259292602539 0.7727331444621086
          0.7741303816437721 0.7754896283149719 0.7768395021557808 0.7781856060028076 0.7795290499925613 0.7808317616581917
          0.7821076735854149 0.7833562269806862 0.7845422551035881 0.7857327610254288 0.7869118452072144 0.7880551815032959
          0.7891397103667259 0.7902389094233513 0.791323721408844 0.7924049645662308 0.7934682741761208 0.7945094704627991
          0.7955240607261658 0.7965253591537476 0.7975051179528236 0.7984627187252045 0.7993957847356796 0.8002846986055374
          0.801156222820282 0.8020102977752686 0.8028544783592224 0.8037072718143463 0.8045106083154678 0.8053100630640984
          0.8061199709773064 0.8069086521863937 0.807673953473568 0.80839454382658 0.8090794607996941 0.8097518160939217
          0.8104402720928192 0.8111239224672318 0.8117899969220161 0.8124439269304276 0.8130861222743988 0.8137229233980179
          0.8143517300486565 0.8149716705083847 0.6621196120977402 0.6617407575249672 0.6615507081151009 0.6615612581372261
          0.6618073657155037 0.6622936353087425 0.6630140170454979 0.6639803647994995 0.6651289612054825 0.6664284616708755
          0.6678920835256577 0.6695204749703407 0.6712488308548927 0.673237144947052 0.6754489094018936 0.6779842376708984
          0.6809124797582626 0.6840989589691162 0.6873203814029694 0.6902817711234093 0.6932970955967903 0.6961665377020836
          0.6989365369081497 0.7016331106424332 0.7044096067547798 0.7072271406650543 0.7101112976670265 0.7130023911595345
          0.7157516777515411 0.7184172570705414 0.7209642007946968 0.7234295234084129 0.7260542064905167 0.728829875588417
          0.7316117212176323 0.7343421205878258 0.7369461879134178 0.7394970953464508 0.7420316711068153 0.7444262579083443
          0.746643915772438 0.7487938776612282 0.7509106174111366 0.7529913187026978 0.755049355328083 0.7570332884788513
          0.7590031176805496 0.7609174996614456 0.7627534493803978 0.7645481079816818 0.7663215845823288 0.7680444717407227
          0.7697216495871544 0.7713194787502289 0.7728634476661682 0.7742685303092003 0.7756541073322296 0.7770625278353691
          0.7784351482987404 0.7798169702291489 0.7811693400144577 0.7824770659208298 0.7837369218468666 0.7849392518401146
          0.7861447632312775 0.7873396500945091 0.7884791120886803 0.7895727083086967 0.7906912341713905 0.7917887195944786
          0.7928837910294533 0.7939615100622177 0.7950137332081795 0.7960434928536415 0.7970588728785515 0.798049196600914
          0.7990184798836708 0.799958311021328 0.8008545413613319 0.8017313405871391 0.8025971725583076 0.8034804612398148
          0.8043273985385895 0.8051486164331436 0.8059826567769051 0.8067895919084549 0.8075763136148453 0.8083461746573448
          0.8090486899018288 0.8097394481301308 0.8104517981410027 0.8111569657921791 0.8118425607681274 0.8125176727771759
          0.8131822422146797 0.8138348758220673 0.8144762516021729 0.8151102215051651 0.8157377317547798 0.8163555562496185
          0.662315845489502 0.6618593111634254 0.6615945026278496 0.6615307852625847 0.6617080122232437 0.6621353849768639
          0.662807784974575 0.663738302886486 0.6648789048194885 0.6661726906895638 0.6676636561751366 0.6693343967199326
          0.6711177602410316 0.673158772289753 0.6754304394125938 0.6780770197510719 0.6811352595686913 0.6843962445855141
          0.6876924857497215 0.6906938776373863 0.6937269270420074 0.6966462880373001 0.6994075775146484 0.7021811082959175
          0.7050537168979645 0.7079571411013603 0.7109246850013733 0.7138838991522789 0.7166812568902969 0.719408743083477
          0.7219790741801262 0.7245825678110123 0.7273951843380928 0.7302659302949905 0.7331027537584305 0.7358238995075226
          0.7384663000702858 0.7410916611552238 0.7436694279313087 0.7459972351789474 0.7481503933668137 0.7503398358821869
          0.7524819672107697 0.7545965239405632 0.7566651776432991 0.758683867752552 0.7606411501765251 0.7625494822859764
          0.764386847615242 0.7662293389439583 0.7680005431175232 0.7697380483150482 0.7714115604758263 0.7729945108294487
          0.7743973582983017 0.7758126258850098 0.7772394642233849 0.7786947414278984 0.7801202237606049 0.7815084680914879
          0.7828549221158028 0.784126840531826 0.7853482440114021 0.7865688055753708 0.7877768278121948 0.7889166250824928
          0.7900170162320137 0.7911549732089043 0.7922644689679146 0.7933729663491249 0.794465497136116 0.7955290377140045
          0.7965778857469559 0.7976033911108971 0.7986024990677834 0.7995762899518013 0.8005193620920181 0.8014331758022308
          0.802322544157505 0.8032162114977837 0.80411446839571 0.8049688711762428 0.8058263584971428 0.806655041873455
          0.8074646517634392 0.8082562163472176 0.8090080469846725 0.809717670083046 0.8104556351900101 0.8111866936087608
          0.8119032457470894 0.8125993087887764 0.8132782578468323 0.813944861292839 0.8146035820245743 0.8152519911527634
          0.8158895745873451 0.8165192157030106 0.8171386122703552 0.8177555277943611 0.6625564619898796 0.662015326321125
          0.6616659164428711 0.661522626876831 0.6616261005401611 0.6619893983006477 0.6626080349087715 0.6634971424937248
          0.664620153605938 0.6659070774912834 0.6674279049038887 0.6691519096493721 0.6709877774119377 0.6730834171175957
          0.6754314228892326 0.678190141916275 0.6813754290342331 0.6846795082092285 0.6880411505699158 0.6911136358976364
          0.6941784769296646 0.6971425637602806 0.699905589222908 0.7027840539813042 0.7057338729500771 0.7087319418787956
          0.711792416870594 0.7147952914237976 0.7176538854837418 0.7204064428806305 0.7230262905359268 0.7258859649300575
          0.7288139760494232 0.7317458242177963 0.734613910317421 0.7373548746109009 0.7400401756167412 0.7428152561187744
          0.7452745586633682 0.7475254982709885 0.7497432231903076 0.7519285604357719 0.754098653793335 0.756260059773922
          0.7583606615662575 0.7603548541665077 0.7623125538229942 0.7642134204506874 0.7661029770970345 0.7679467648267746
          0.7697518914937973 0.7715015113353729 0.7731121405959129 0.774528294801712 0.775973454117775 0.7774188965559006
          0.7789226919412613 0.7804268524050713 0.7818579822778702 0.7832272946834564 0.7845278903841972 0.785769872367382
          0.7870054543018341 0.7882278934121132 0.7893661186099052 0.7904824316501617 0.7916294485330582 0.7927509024739265
          0.7938769087195396 0.7949808984994888 0.7960578873753548 0.7971175834536552 0.7981515452265739 0.7991616129875183
          0.8001392558217049 0.801095150411129 0.8020229265093803 0.8029303848743439 0.8038619756698608 0.8047634214162827
          0.8056488335132599 0.8065031915903091 0.8073372170329094 0.808151975274086 0.8089513629674911 0.8097033873200417
          0.8104703202843666 0.8112201914191246 0.811954140663147 0.8126731440424919 0.8133707791566849 0.8140571936964989
          0.8147309720516205 0.8153926581144333 0.8160428032279015 0.8166826143860817 0.8173219263553619 0.8179514482617378
          0.8185709789395332 0.8191809952259064 0.6628455594182014 0.6622140184044838 0.6617713794112206 0.6615436300635338
          0.6615657582879066 0.6618575230240822 0.6624158173799515 0.6632587090134621 0.6643567159771919 0.6656397804617882
          0.6671943590044975 0.6689742282032967 0.6708534359931946 0.6730028688907623 0.675446480512619 0.6783239021897316
          0.6816217377781868 0.6849767714738846 0.6883557438850403 0.6915324106812477 0.694652259349823 0.697642982006073
          0.7004577741026878 0.7034074068069458 0.7064501196146011 0.7095414847135544 0.7126847803592682 0.7157622948288918
          0.7186315730214119 0.7214211821556091 0.7242227271199226 0.7272684052586555 0.7303118258714676 0.7332829087972641
          0.7361612692475319 0.7389147728681564 0.7417619526386261 0.7444859519600868 0.7468941509723663 0.7491164728999138
          0.7513777241110802 0.7535804361104965 0.7557910233736038 0.7579964026808739 0.7600590139627457 0.7620721757411957
          0.7640255242586136 0.7659510523080826 0.7678930833935738 0.7697582840919495 0.771562822163105 0.7732012867927551
          0.7746619060635567 0.7761361822485924 0.7776022106409073 0.7791716456413269 0.7807066962122917 0.7821901738643646
          0.7836094424128532 0.7849238365888596 0.7862023487687111 0.7874561175704002 0.7886789590120316 0.7898275330662727
          0.7909635603427887 0.7921155840158463 0.7932491898536682 0.7943884655833244 0.7954995855689049 0.79659453779459
          0.7976650819182396 0.7987120896577835 0.7997272536158562 0.800713375210762 0.8016820102930069 0.8026290386915207
          0.8035807833075523 0.8045152127742767 0.8054497241973877 0.8063323274254799 0.807200126349926 0.8080476820468903
          0.8088757544755936 0.8096878528594971 0.8104755505919456 0.8112456351518631 0.8119980916380882 0.8127353563904762
          0.813462570309639 0.8141671195626259 0.814855694770813 0.8155312761664391 0.8161946684122086 0.8168556168675423
          0.8175065144896507 0.8181479871273041 0.8187800720334053 0.8194057568907738 0.8200218379497528 0.8206274062395096
          0.6631773561239243 0.6624679714441299 0.6619217246770859 0.6615981236100197 0.6615294739603996 0.6617431938648224
          0.6622360423207283 0.6630278825759888 0.6640966087579727 0.6653788164258003 0.6669659614562988 0.6687782630324364
          0.6707085520029068 0.672914482653141 0.6754768267273903 0.6784542724490166 0.6818748638033867 0.6852775812149048
          0.6886851489543915 0.6919327974319458 0.6951319724321365 0.6981143653392792 0.7010525465011597 0.7040867134928703
          0.7071971669793129 0.7104048058390617 0.7136553972959518 0.7167318016290665 0.7196446135640144 0.7224975079298019
          0.725591391324997 0.7287363409996033 0.7318289950489998 0.7348612919449806 0.7377067059278488 0.7406567260622978
          0.7435468137264252 0.7461693659424782 0.7484755665063858 0.7507879659533501 0.7530534490942955 0.7553100660443306
          0.7575758248567581 0.7597305476665497 0.7618190497159958 0.763830155134201 0.7657988369464874 0.7678001672029495
          0.7697557359933853 0.7716107070446014 0.7732823267579079 0.7747948467731476 0.7763026431202888 0.7778257057070732
          0.7794262766838074 0.780993789434433 0.7825061082839966 0.7839524522423744 0.7853320091962814 0.786631315946579
          0.7879168689250946 0.7891390472650528 0.790302462875843 0.7914560288190842 0.7926080599427223 0.7937508746981621
          0.7949054762721062 0.7960325703024864 0.7971428856253624 0.7982270047068596 0.7992814481258392 0.8003028184175491
          0.8013023883104324 0.8022793009877205 0.8032677248120308 0.8042472526431084 0.8052171468734741 0.8061629310250282
          0.8070584014058113 0.8079321533441544 0.8087849915027618 0.8096446394920349 0.8104702979326248 0.8112612590193748
          0.8120355904102325 0.8127966299653053 0.813541442155838 0.8142710328102112 0.8149766996502876 0.8156671524047852
          0.8163542151451111 0.8170286640524864 0.8176901265978813 0.8183458223938942 0.8189921006560326 0.8196278363466263
          0.8202535063028336 0.8208683505654335 0.821472205221653 0.8220669999718666 0.6635819002985954 0.6627747341990471
          0.662120133638382 0.6616905853152275 0.6615241691470146 0.6616513282060623 0.6620720028877258 0.6628025695681572
          0.6638379320502281 0.6651201024651527 0.6667389795184135 0.6685708984732628 0.6705549657344818 0.6728308573365211
          0.6755056008696556 0.6785924434661865 0.6820934116840363 0.6855621039867401 0.6890158876776695 0.6923521459102631
          0.6955949738621712 0.6986436545848846 0.7016828879714012 0.7047946378588676 0.7079778984189034 0.7113503962755203
          0.7146454006433487 0.7177022844552994 0.7207038402557373 0.7237670719623566 0.7270188108086586 0.7302355319261551
          0.7334138005971909 0.7364098280668259 0.7394468635320663 0.7424858137965202 0.7453238591551781 0.7478091642260551
          0.7501412183046341 0.7525016218423843 0.7548059225082397 0.7571329101920128 0.7593883872032166 0.7615428939461708
          0.7636203393340111 0.7656572461128235 0.7677065134048462 0.7697096168994904 0.771643877029419 0.7733434289693832
          0.7749167457222939 0.7764951810240746 0.778058223426342 0.7796862795948982 0.7812880799174309 0.7828305214643478
          0.7842945083975792 0.7857024073600769 0.7870666459202766 0.788370244204998 0.7896090969443321 0.7907834649085999
          0.7919530421495438 0.7931086793541908 0.7942681908607483 0.7954344749450684 0.7965820133686066 0.7977046743035316
          0.7988003268837929 0.7998609840869904 0.8008994162082672 0.8019169569015503 0.8029238358139992 0.8039491176605225
          0.8049713969230652 0.8059498518705368 0.8068968802690506 0.8077981546521187 0.8086773306131363 0.809570200741291
          0.8104528859257698 0.8112687990069389 0.8120687156915665 0.8128496557474136 0.8136133998632431 0.8143604472279549
          0.8150906711816788 0.8158051371574402 0.8165055513381958 0.8171949833631516 0.8178745359182358 0.8185421079397202
          0.8192008286714554 0.8198484778404236 0.8204852789640427 0.8211096599698067 0.8217241317033768 0.8223291859030724
          0.8229212984442711 0.8235035240650177 0.6640462726354599 0.6631449535489082 0.6623719483613968 0.6618301570415497
          0.6615541055798531 0.661584734916687 0.6619250476360321 0.6625868380069733 0.6635775566101074 0.6648712083697319
          0.6665032207965851 0.6683537364006042 0.6704040542244911 0.6727598384022713 0.6755371615290642 0.6787483394145966
          0.6823107078671455 0.6858443319797516 0.6893701106309891 0.6927947923541069 0.6960940361022949 0.699201226234436
          0.7023306787014008 0.705525629222393 0.7088707461953163 0.7123401463031769 0.715589702129364 0.718731127679348
          0.7218332216143608 0.7251872941851616 0.7284958362579346 0.7317709252238274 0.7349598109722137 0.7381550297141075
          0.7412853091955185 0.7443189173936844 0.7470633611083031 0.7494799867272377 0.7518961504101753 0.7542510330677032