<VTKFile type="PolyData" version="1.0" byte_order="LittleEndian" header_type="UInt64">
  <PolyData>
    <Piece NumberOfPoints="10000" NumberOfVerts="0" NumberOfLines="0" NumberOfStrips="0" NumberOfPolys="9801">
      <PointData>
        <DataArray type="Float32" Name="zvalue" NumberOfComponents="1" format="ascii" RangeMin="0.6041101440787315" RangeMax="1.1145625039935112">
          0.6607338860630989 0.6609539613127708 0.6611329019069672 0.6612252965569496 0.6611756756901741 0.6610072627663612
          0.6607248187065125 0.6603286489844322 0.6598555073142052 0.6592869535088539 0.6586156487464905 0.6578730419278145
          0.6571432650089264 0.6564264744520187 0.6557002514600754 0.6549984514713287 0.6543345674872398 0.6537002995610237
          0.6530395001173019 0.6523367166519165 0.6515947878360748 0.6508346945047379 0.6500554457306862 0.6492849215865135
          0.6485801339149475 0.6478824391961098 0.6472024098038673 0.6464849933981895 0.6457567438483238 0.6450301706790924
          0.644312784075737 0.6436031833291054 0.6429299935698509 0.6422831192612648 0.6416418179869652 0.6410036683082581
          0.6403952166438103 0.6397940441966057 0.639213353395462 0.6386486887931824 0.6380844414234161 0.6375117674469948
          0.6369383782148361 0.6363761723041534 0.6358076855540276 0.6352247223258018 0.6346416920423508 0.6341039091348648
          0.6335954293608665 0.6331101655960083 0.6326300576329231 0.6321720108389854 0.631735734641552 0.6313159614801407
          0.6309062168002129 0.6304916366934776 0.6300818771123886 0.629676416516304 0.6292824223637581 0.6289086490869522
          0.6285426467657089 0.6281742006540298 0.6278021857142448 0.6274320632219315 0.6270787194371223 0.6267375946044922
          0.6264158114790916 0.6261102706193924 0.6258179023861885 0.6255355179309845 0.6252714991569519 0.6250182241201401
          0.6247807368636131 0.6245540976524353 0.6243414878845215 0.6241400837898254 0.6239475458860397 0.6237636879086494
          0.6235879585146904 0.6234201863408089 0.6232601180672646 0.6231130585074425 0.6229778677225113 0.6228475123643875
          0.6227208003401756 0.622600331902504 0.6224878281354904 0.6223821192979813 0.6222837790846825 0.6221896037459373
          0.6221018731594086 0.6220194473862648 0.6219409257173538 0.6218671426177025 0.6217988580465317 0.6217345893383026
          0.6216736659407616 0.6216163262724876 0.6215625628829002 0.6215123310685158 0.6610379368066788 0.6612685024738312
          0.6614709496498108 0.6615682169795036 0.6615211740136147 0.6613545194268227 0.6610684096813202 0.6606593132019043
          0.6601773723959923 0.6596022397279739 0.658904604613781 0.6581399589776993 0.6574101522564888 0.6566829308867455
          0.6559561640024185 0.655238427221775 0.6545594483613968 0.6539279371500015 0.653238445520401 0.652507595717907
          0.6517501026391983 0.6509778127074242 0.6501711308956146 0.6494036167860031 0.648703433573246 0.6479829475283623
          0.6472808048129082 0.6465377286076546 0.6458000615239143 0.6450499221682549 0.6443268209695816 0.6436185836791992
          0.6429412662982941 0.6422884613275528 0.641631081700325 0.6409985944628716 0.6403821483254433 0.6397764086723328
          0.6391964256763458 0.6386198252439499 0.6380389854311943 0.6374523043632507 0.6368825808167458 0.6363049149513245
          0.6357140317559242 0.6351130083203316 0.6345412507653236 0.634010910987854 0.6335097029805183 0.6330161988735199
          0.6325385347008705 0.6320984959602356 0.6316588744521141 0.6312379688024521 0.6308106407523155 0.6303900554776192
          0.6299681887030602 0.6295628249645233 0.6291745826601982 0.6287954598665237 0.6284149214625359 0.6280295476317406
          0.6276486068964005 0.6272850930690765 0.6269312798976898 0.6265978962182999 0.6262823715806007 0.6259816288948059
          0.6256910189986229 0.6254185289144516 0.6251569390296936 0.6249098777770996 0.6246764287352562 0.6244583427906036
          0.6242503598332405 0.6240516752004623 0.6238619834184647 0.6236809864640236 0.6235080361366272 0.6233427301049232
          0.6231914013624191 0.6230518594384193 0.6229172945022583 0.6227841302752495 0.622660867869854 0.6225445792078972
          0.622434139251709 0.6223327293992043 0.6222357898950577 0.6221443861722946 0.6220590248703957 0.6219776794314384
          0.6219019219279289 0.6218314319849014 0.6217650398612022 0.6217018440365791 0.6216424629092216 0.6215867400169373
          0.6215346530079842 0.6214859932661057 0.6613492593169212 0.661591999232769 0.6618181765079498 0.6619203463196754
          0.6618846878409386 0.6617111638188362 0.6614175960421562 0.6609991118311882 0.660509280860424 0.6599258333444595
          0.6591951102018356 0.6584268659353256 0.657685674726963 0.6569447442889214 0.6562205255031586 0.6554800048470497
          0.6547959372401237 0.6541520580649376 0.6534431353211403 0.6526870056986809 0.6519113183021545 0.6511121243238449
          0.6502820700407028 0.6495383381843567 0.648804247379303 0.648095540702343 0.6473550498485565 0.646589882671833
          0.6458397954702377 0.6450910940766335 0.644343763589859 0.6436338499188423 0.6429553925991058 0.6422889307141304
          0.6416284665465355 0.6409949511289597 0.6403678059577942 0.6397690325975418 0.639179028570652 0.6385908126831055
          0.6379887834191322 0.6374034583568573 0.6368248462677002 0.6362260952591896 0.6356062367558479 0.635009802877903
          0.6344460546970367 0.6339275538921356 0.6334191486239433 0.6329244077205658 0.6324750334024429 0.6320216506719589
          0.6315832957625389 0.6311438381671906 0.6307118535041809 0.6302764043211937 0.6298553496599197 0.629453033208847
          0.6290600076317787 0.6286644265055656 0.6282656788825989 0.6278767585754395 0.6274996772408485 0.6271354258060455
          0.6267884895205498 0.6264636963605881 0.6261529922485352 0.6258538141846657 0.6255722567439079 0.6253009140491486
          0.6250452995300293 0.6248050928115845 0.6245805844664574 0.6243658810853958 0.6241606920957565 0.623964823782444
          0.6237779632210732 0.6235998868942261 0.6234293729066849 0.6232734620571136 0.6231294274330139 0.6229900270700455
          0.6228509694337845 0.6227242946624756 0.6226040050387383 0.622489795088768 0.622383825480938 0.6222837194800377
          0.6221884340047836 0.6220995932817459 0.6220154836773872 0.6219375431537628 0.6218646615743637 0.6217959374189377
          0.6217305585741997 0.6216691955924034 0.6216115802526474 0.6215576678514481 0.6215067878365517 0.6214598566293716
          0.6616609394550323 0.6619232296943665 0.6621749252080917 0.6622826457023621 0.66225715726614 0.6620771884918213
          0.6617762446403503 0.6613496989011765 0.66084835678339 0.6602518483996391 0.6594885662198067 0.6587212905287743
          0.6579726114869118 0.6572179049253464 0.6564807593822479 0.655720129609108 0.655050128698349 0.6543785259127617
          0.653645284473896 0.6528704091906548 0.6520735993981361 0.651247076690197 0.6504143625497818 0.649676226079464
          0.648928627371788 0.6481912285089493 0.647423230111599 0.6466502025723457 0.6458730548620224 0.6451178565621376
          0.6443658098578453 0.6436541751027107 0.642971470952034 0.6422910615801811 0.6416344866156578 0.6409901827573776
          0.6403662636876106 0.6397606134414673 0.6391599625349045 0.6385525092482567 0.6379497945308685 0.6373621076345444
          0.6367590129375458 0.6361227706074715 0.6355033814907074 0.634911336004734 0.634363517165184 0.633840911090374
          0.6333311945199966 0.632862277328968 0.6324057504534721 0.6319440752267838 0.6314927861094475 0.6310485601425171
          0.6306004226207733 0.6301605328917503 0.629744254052639 0.6293370947241783 0.6289253905415535 0.6285127699375153
          0.6281133964657784 0.6277241706848145 0.6273492947220802 0.6269887313246727 0.6266536489129066 0.6263325214385986
          0.6260244473814964 0.6257333159446716 0.6254512444138527 0.6251868382096291 0.6249405965209007 0.6247086748480797
          0.6244867965579033 0.6242748722434044 0.6240725368261337 0.6238795891404152 0.6236957013607025 0.6235199719667435
          0.6233590319752693 0.6232100427150726 0.623063936829567 0.6229211613535881 0.6227890998125076 0.6226646602153778
          0.6225466802716255 0.6224361062049866 0.6223330274224281 0.6222333908081055 0.6221415996551514 0.6220547929406166
          0.6219746768474579 0.6218994334340096 0.6218284368515015 0.6217608451843262 0.6216973438858986 0.621637761592865
          0.6215817630290985 0.621528759598732 0.6214800104498863 0.6214341446757317 0.6619855985045433 0.6622589901089668
          0.6625394895672798 0.6626546606421471 0.6626343503594398 0.66245898604393 0.6621446460485458 0.661719411611557
          0.6612021997570992 0.6605739966034889 0.659792847931385 0.6590224727988243 0.6582604572176933 0.6575016528367996
          0.6567472070455551 0.655982993543148 0.6553122326731682 0.6546127572655678 0.6538490131497383 0.6530561223626137
          0.6522290259599686 0.6513685882091522 0.6505577489733696 0.6498133316636086 0.6490606516599655 0.6482867375016212
          0.6474914252758026 0.6467093154788017 0.6459235325455666 0.645147517323494 0.6443912386894226 0.6436823904514313
          0.6429834142327309 0.6423056274652481 0.6416422575712204 0.6409911215305328 0.6403676196932793 0.6397510468959808
          0.6391411572694778 0.6385226100683212 0.6379179656505585 0.6373094394803047 0.6366639211773872 0.6360212415456772
          0.6354058608412743 0.6348285004496574 0.6342825070023537 0.633756160736084 0.6332677975296974 0.6328034028410912
          0.6323227807879448 0.6318584531545639 0.6313990280032158 0.6309401914477348 0.6304813399910927 0.6300490200519562
          0.6296265125274658 0.6291987672448158 0.6287716627120972 0.6283607184886932 0.6279594749212265 0.6275728717446327
          0.6272015273571014 0.6268526762723923 0.6265206187963486 0.6262022629380226 0.6259009167551994 0.6256091520190239
          0.6253351122140884 0.6250826120376587 0.6248427480459213 0.6246130019426346 0.6243934854865074 0.6241840794682503
          0.6239843294024467 0.6237942576408386 0.6236130371689796 0.6234470456838608 0.6232931166887283 0.6231404915452003
          0.6229940131306648 0.6228567808866501 0.6227282732725143 0.6226063966751099 0.6224909797310829 0.6223845854401588
          0.6222813352942467 0.6221856325864792 0.6220962777733803 0.6220137402415276 0.6219359412789345 0.6218624785542488
          0.6217926666140556 0.6217270344495773 0.6216653883457184 0.6216067224740982 0.6215519532561302 0.6215013563632965
          0.621454656124115 0.6214117929339409 0.66232880204916 0.6626128330826759 0.6629049107432365 0.6630345284938812
          0.6630207672715187 0.662860743701458 0.6625231951475143 0.6620969548821449 0.6615570709109306 0.6609057486057281
          0.6601038202643394 0.6593249887228012 0.6585542038083076 0.6577901169657707 0.657017283141613 0.6562551781535149
          0.6555736884474754 0.6548512652516365 0.6540569588541985 0.6532400473952293 0.6523802727460861 0.6514942869544029
          0.6507154926657677 0.649961344897747 0.6491808518767357 0.648377425968647 0.6475640386343002 0.6467644721269608
          0.6459730118513107 0.645183689892292 0.6444256082177162 0.64371407777071 0.643004447221756 0.6423296481370926
          0.6416554152965546 0.6410042718052864 0.6403703689575195 0.639747217297554 0.6391204074025154 0.6385010629892349
          0.6378846764564514 0.6372331753373146 0.6365640759468079 0.6359264254570007 0.6353203356266022 0.6347518041729927
          0.6342013403773308 0.6336923092603683 0.6332130283117294 0.6327271908521652 0.632241778075695 0.6317672878503799
          0.6312966048717499 0.6308222189545631 0.6303693652153015 0.6299267634749413 0.6294853985309601 0.6290430277585983
          0.6286198571324348 0.6282061859965324 0.6278061196208 0.6274250447750092 0.62706159055233 0.6267178133130074
          0.6263886243104935 0.6260756254196167 0.6257736906409264 0.6254901811480522 0.6252289712429047 0.6249806731939316
          0.6247431337833405 0.6245163679122925 0.6242999136447906 0.6240935623645782 0.6238974258303642 0.6237107589840889
          0.623538963496685 0.62337826192379 0.6232219934463501 0.6230703368782997 0.622927725315094 0.6227950155735016
          0.6226691529154778 0.6225498840212822 0.6224381700158119 0.6223315894603729 0.6222318485379219 0.6221400648355484
          0.62205471098423 0.6219743937253952 0.6218983754515648 0.621826171875 0.621758334338665 0.6216941848397255
          0.6216331422328949 0.6215768083930016 0.6215242594480515 0.621476374566555 0.6214314550161362 0.6213893815875053
          0.662680484354496 0.6629876270890236 0.6632862538099289 0.6634159088134766 0.6634156182408333 0.6632721871137619
          0.6629195660352707 0.6624796316027641 0.6619207635521889 0.6612342745065689 0.6604262962937355 0.6596380025148392
          0.6588548943400383 0.6580891013145447 0.6573056951165199 0.6565363481640816 0.6558373346924782 0.6550847366452217
          0.6542678624391556 0.653423473238945 0.6525285020470619 0.6516606211662292 0.6508842408657074 0.6501179710030556
          0.6492995843291283 0.6484667435288429 0.6476473584771156 0.646821953356266 0.6460182964801788 0.6452229768037796
          0.6444680616259575 0.6437413170933723 0.6430328786373138 0.642353467643261 0.6416731253266335 0.6410194709897041
          0.6403800621628761 0.6397459283471107 0.6391107589006424 0.6384778469800949 0.6378289833664894 0.6371377855539322
          0.6364743039011955 0.63583804666996 0.6352475956082344 0.6346739530563354 0.6341363713145256 0.6336424574255943
          0.6331460475921631 0.6326438561081886 0.6321535333991051 0.6316684857010841 0.6311801970005035 0.6307055801153183
          0.6302409023046494 0.6297853142023087 0.6293280869722366 0.6288912370800972 0.6284627988934517 0.6280516982078552
          0.6276593804359436 0.6272820010781288 0.6269225627183914 0.6265801638364792 0.6262562647461891 0.6259443610906601
          0.6256516948342323 0.625381737947464 0.6251253187656403 0.6248796805739403 0.6246451139450073 0.6244213655591011
          0.6242084056138992 0.6240056604146957 0.6238132268190384 0.6236353516578674 0.6234671026468277 0.6233072206377983
          0.6231505051255226 0.6230021715164185 0.6228650733828545 0.6227349862456322 0.6226116791367531 0.6224941834807396
          0.6223843768239021 0.6222803965210915 0.6221860498189926 0.6220977753400803 0.6220148205757141 0.6219361945986748
          0.62186149507761 0.6217912659049034 0.6217242181301117 0.6216613948345184 0.6216031759977341 0.6215491071343422
          0.6214990392327309 0.6214519888162613 0.6214084178209305 0.6213667914271355 0.6630422025918961 0.6633714884519577
          0.6636896952986717 0.6638161838054657 0.6638123840093613 0.6636927574872971 0.6633293181657791 0.6628745496273041
          0.6622964888811111 0.6615642532706261 0.6607623919844627 0.6599598526954651 0.6591769531369209 0.6583938747644424
          0.6576029658317566 0.6568341106176376 0.6561083123087883 0.6553243547677994 0.6544844135642052 0.6535937637090683
          0.6526758074760437 0.6518514156341553 0.6510570496320724 0.6502598151564598 0.6494139954447746 0.6485502049326897
          0.6477230861783028 0.6468934789299965 0.6460652649402618 0.645266018807888 0.644516110420227 0.6437821984291077
          0.6430777758359909 0.642386682331562 0.6417062804102898 0.641043983399868 0.6403952911496162 0.6397480517625809
          0.6391003802418709 0.6384436339139938 0.6377463638782501 0.6370553597807884 0.6363848075270653 0.6357678174972534
          0.6351762190461159 0.634612001478672 0.634092427790165 0.633580893278122 0.6330730319023132 0.632559061050415
          0.6320583149790764 0.6315561532974243 0.6310594007372856 0.6305709257721901 0.6300981342792511 0.6296272575855255
          0.6291737854480743 0.6287295296788216 0.6283072829246521 0.6279005482792854 0.627511240541935 0.6271362230181694
          0.6267799884080887 0.6264463514089584 0.6261245831847191 0.625821128487587 0.6255420222878456 0.6252769082784653
          0.6250229254364967 0.6247802451252937 0.624548926949501 0.6243288293480873 0.6241195425391197 0.6239208355545998
          0.6237342357635498 0.6235615834593773 0.6233960911631584 0.6232345551252365 0.6230807229876518 0.6229385063052177
          0.6228040978312492 0.6226761192083359 0.6225533336400986 0.6224398985505104 0.6223319321870804 0.6222344264388084
          0.6221431344747543 0.6220573112368584 0.6219759657979012 0.6218987107276917 0.621825784444809 0.6217563971877098
          0.6216912716627121 0.6216309666633606 0.6215750128030777 0.6215228140354156 0.6214740201830864 0.6214275136590004
          0.6213841289281845 0.6213441342115402 0.6634123623371124 0.6637667939066887 0.6641024202108383 0.6642511337995529
          0.6642278134822845 0.6641117259860039 0.6637456864118576 0.6632752940058708 0.6626841127872467 0.6619015485048294
          0.6611061915755272 0.6602927297353745 0.659512110054493 0.6587144583463669 0.6579102799296379 0.657136932015419
          0.6563870832324028 0.6555632278323174 0.6546908989548683 0.6537586376070976 0.6528486013412476 0.6520389541983604
          0.6512485817074776 0.6504023969173431 0.649527870118618 0.648654080927372 0.6478041335940361 0.6469635292887688
          0.6461281478404999 0.6453255340456963 0.6445701196789742 0.6438323557376862 0.6431310847401619 0.6424307152628899
          0.641749419271946 0.6410770863294601 0.6404156684875488 0.6397557705640793 0.6390814781188965 0.6383903175592422
          0.6376711279153824 0.6369703188538551 0.6363210827112198 0.635705254971981 0.6351205185055733 0.6345670819282532
          0.6340374127030373 0.6335180699825287 0.6329849511384964 0.632467970252037 0.631950668990612 0.631432980298996
          0.6309199705719948 0.630424827337265 0.629936009645462 0.629467286169529 0.6290096864104271 0.6285751536488533
          0.6281537190079689 0.6277521476149559 0.6273628398776054 0.6269897893071175 0.6266448497772217 0.6263144910335541
          0.6259990110993385 0.6257103532552719 0.6254358291625977 0.6251732558012009 0.6249221339821815 0.6246830523014069
          0.6244552284479141 0.6242395117878914 0.6240338683128357 0.6238379329442978 0.6236603856086731 0.6234892383217812
          0.6233224347233772 0.6231638193130493 0.6230157986283302 0.6228766962885857 0.6227436661720276 0.6226167008280754
          0.6224981993436813 0.6223866418004036 0.6222852319478989 0.6221908703446388 0.6221021041274071 0.6220178529620171
          0.6219382882118225 0.6218621805310249 0.62179034948349 0.6217228174209595 0.6216602772474289 0.6216024234890938
          0.6215480864048004 0.6214963346719742 0.6214476153254509 0.6214025020599365 0.6213608905673027 0.6213226616382599
          0.663790263235569 0.6641716882586479 0.664527177810669 0.6646954864263535 0.6646727547049522 0.6645593717694283
          0.6641571149230003 0.6636770218610764 0.6630671694874763 0.6622474044561386 0.6614609584212303 0.6606407687067986
          0.6598483324050903 0.6590533703565598 0.6582204326987267 0.6574471741914749 0.6566577404737473 0.6558072417974472
          0.6548809856176376 0.653930626809597 0.6530667468905449 0.6522373035550117 0.651425875723362 0.6505532935261726
          0.6496434882283211 0.6487691327929497 0.6479021981358528 0.6470369547605515 0.646193616092205 0.6453961655497551
          0.6446333602070808 0.6439004614949226 0.6431909278035164 0.6424888297915459 0.64179827272892 0.6411159411072731
          0.6404353529214859 0.6397504508495331 0.6390578299760818 0.6383199915289879 0.637593500316143 0.6369101256132126
          0.6362707391381264 0.6356621459126472 0.6350799798965454 0.6345220133662224 0.6339835673570633 0.6334372535347939
          0.6328986659646034 0.632361963391304 0.6318232640624046 0.6312830001115799 0.6307657808065414 0.6302592903375626
          0.6297747269272804 0.629305325448513 0.6288542300462723 0.6284198462963104 0.6280043423175812 0.6275998204946518
          0.627210296690464 0.6268537268042564 0.6265140548348427 0.6261866763234138 0.6258871480822563 0.6256027519702911
          0.6253310665488243 0.6250713765621185 0.6248239278793335 0.6245880872011185 0.6243655756115913 0.6241501644253731
          0.6239480525255203 0.6237641423940659 0.6235870644450188 0.6234145313501358 0.6232508346438408 0.6230970025062561
          0.6229524537920952 0.6228145882487297 0.6226832941174507 0.6225594282150269 0.6224446445703506 0.622338704764843
          0.6222411021590233 0.6221492365002632 0.6220624446868896 0.6219797134399414 0.6219006255269051 0.6218261122703552
          0.6217558607459068 0.6216915845870972 0.6216313168406487 0.6215739846229553 0.6215195506811142 0.6214689910411835
          0.6214220896363258 0.6213789507746696 0.6213383674621582 0.6213008090853691 0.6641764044761658 0.6645854935050011
          0.6649617776274681 0.665150411427021 0.665139764547348 0.6650163754820824 0.6645890176296234 0.6640733107924461
          0.6634523943066597 0.6626112908124924 0.6618340238928795 0.661008708178997 0.6602087616920471 0.6594008281826973
          0.6585295647382736 0.6577606499195099 0.656929574906826 0.6560289338231087 0.65507822483778 0.6541536450386047
          0.6532931476831436 0.6524566039443016 0.6516043916344643 0.6506997868418694 0.6497668474912643 0.6488788798451424
          0.64799565076828 0.6471159532666206 0.646274171769619 0.6454756259918213 0.6447125375270844 0.6439898982644081
          0.6432593166828156 0.6425536423921585 0.6418501138687134 0.6411515772342682 0.6404490023851395 0.6397381648421288
          0.6390025243163109 0.6382502913475037 0.6375351026654243 0.6368656307458878 0.6362376436591148 0.635623537003994
          0.6350459903478622 0.6344763413071632 0.6339135617017746 0.6333538144826889 0.6327943801879883 0.6322353258728981
          0.6316711008548737 0.6311248615384102 0.6305992603302002 0.6300963014364243 0.6296161264181137 0.6291468292474747
          0.6286999434232712 0.628268651664257 0.6278491541743279 0.6274450793862343 0.6270747631788254 0.6267239302396774
          0.6263844147324562 0.6260730475187302 0.6257781982421875 0.6254966855049133 0.6252283081412315 0.624971829354763
          0.6247277185320854 0.624498039484024 0.6242721006274223 0.6240636855363846 0.6238732114434242 0.6236898750066757
          0.623511292040348 0.6233418732881546 0.6231822147965431 0.6230318546295166 0.6228892207145691 0.6227533519268036
          0.6226243674755096 0.6225055903196335 0.6223949491977692 0.6222941502928734 0.622199572622776 0.622109666466713
          0.6220230460166931 0.6219410449266434 0.6218636482954025 0.6217906847596169 0.621724396944046 0.6216611340641975
          0.6216006726026535 0.6215441450476646 0.6214916035532951 0.6214430779218674 0.6213977560400963 0.6213550418615341
          0.6213157325983047 0.6212800592184067 0.6645777896046638 0.6650089174509048 0.6654037088155746 0.6656153425574303
          0.665629006922245 0.6654760912060738 0.6650380045175552 0.664506658911705 0.6638184934854507 0.663018248975277
          0.6622228845953941 0.6613916978240013 0.6605855822563171 0.6597560942173004 0.658858098089695 0.6580712050199509
          0.6572049036622047 0.65625811368227 0.6552990898489952 0.6543817818164825 0.6535286828875542 0.6526740044355392
          0.6517882570624352 0.6508436724543571 0.6499093100428581 0.6489930376410484 0.6480910181999207 0.6472025960683823
          0.6463647559285164 0.645566999912262 0.6448117792606354 0.6440723836421967 0.6433432027697563 0.6426202431321144
          0.6419094279408455 0.6411736831068993 0.6404522061347961 0.6397193595767021 0.6389418169856071 0.6381944119930267
          0.6374926418066025 0.6368436738848686 0.6362015381455421 0.6356001496315002 0.6350038722157478 0.6344093009829521
          0.6338304579257965 0.6332495585083961 0.6326698362827301 0.6320838108658791 0.6315085217356682 0.630961112678051
          0.630439318716526 0.6299417987465858 0.6294553503394127 0.6289948374032974 0.6285452842712402 0.6281110271811485
          0.6276928260922432 0.6273074224591255 0.6269447281956673 0.6265924349427223 0.6262685731053352 0.6259627342224121
          0.6256711259484291 0.6253930479288101 0.6251274421811104 0.6248753294348717 0.6246351972222328 0.6244014203548431
          0.624185174703598 0.6239878311753273 0.6237978488206863 0.6236129924654961 0.6234376430511475 0.6232707127928734
          0.6231154501438141 0.6229676455259323 0.6228269711136818 0.6226935461163521 0.622569665312767 0.6224556490778923
          0.6223505884408951 0.6222526580095291 0.6221587136387825 0.6220687031745911 0.6219835504889488 0.6219029873609543
          0.6218282729387283 0.6217587292194366 0.621691606938839 0.6216288655996323 0.6215702295303345 0.6215158700942993
          0.6214655116200447 0.6214173138141632 0.6213731020689011 0.6213324964046478 0.6212951317429543 0.6212604567408562
          0.6649880483746529 0.6654420420527458 0.6658518090844154 0.6660903841257095 0.666125662624836 0.6659461557865143
          0.6654974594712257 0.664946973323822 0.6642255485057831 0.6634113490581512 0.6626311913132668 0.6617884412407875
          0.6609714329242706 0.6601109430193901 0.6592115461826324 0.6583898290991783 0.6574600860476494 0.656492754817009
          0.6555527001619339 0.6546444073319435 0.6537753567099571 0.6528946310281754 0.651963509619236 0.6509880349040031
          0.6500507295131683 0.6491113975644112 0.6481882780790329 0.6473051533102989 0.6464682221412659 0.6456842049956322
          0.6449217945337296 0.6441718265414238 0.6434299945831299 0.6426951289176941 0.6419454365968704 0.6412028670310974
          0.6404467225074768 0.6396702975034714 0.6388891786336899 0.6381582468748093 0.637482225894928 0.636815257370472
          0.6361834555864334 0.6355607360601425 0.6349438801407814 0.634332962334156 0.633729562163353 0.6331259161233902
          0.63251893222332 0.6319164335727692 0.6313429698348045 0.6308024898171425 0.6302858367562294 0.6297828927636147
          0.6293066143989563 0.6288392022252083 0.628386951982975 0.6279560029506683 0.6275543123483658 0.6271757930517197
          0.6268114224076271 0.6264742165803909 0.6261570155620575 0.6258546337485313 0.6255661994218826 0.6252910941839218
          0.6250307112932205 0.6247783824801445 0.624537393450737 0.6243129670619965 0.6241083666682243 0.6239114180207253
          0.6237199604511261 0.6235383525490761 0.6233646422624588 0.6232026964426041 0.6230502799153328 0.6229044571518898
          0.622766301035881 0.6226377636194229 0.6225200071930885 0.6224100664258003 0.6223085001111031 0.6222101002931595
          0.6221165880560875 0.6220279261469841 0.6219445616006851 0.6218676492571831 0.6217933744192123 0.6217237934470177
          0.6216586530208588 0.6215980052947998 0.6215423792600632 0.621489055454731 0.6214390993118286 0.6213928908109665
          0.621350385248661 0.6213110238313675 0.6212736219167709 0.621241107583046 0.6654034927487373 0.6658838242292404
          0.666317991912365 0.6665781140327454 0.6666258126497269 0.6664358898997307 0.6659683212637901 0.6654097661376
          0.6646492928266525 0.663836233317852 0.6630039438605309 0.6622122079133987 0.6613751500844955 0.6604736521840096
          0.6595779210329056 0.658695176243782 0.657720685005188 0.6567685380578041 0.6558166965842247 0.6549137383699417
          0.6540145799517632 0.6531115248799324 0.6521363332867622 0.6511514857411385 0.6501828357577324 0.64922995865345
          0.6482954397797585 0.647420734167099 0.6465963572263718 0.6458046138286591 0.6450443491339684 0.6442773267626762
          0.6435237601399422 0.6427607908844948 0.6419792249798775 0.6412161141633987 0.6404393240809441 0.6396216228604317
          0.6388605013489723 0.6381500065326691 0.6374601498246193 0.6367987915873528 0.6361510828137398 0.6355108246207237
          0.6348727196455002 0.6342367455363274 0.6336072683334351 0.6329769492149353 0.6323503330349922 0.6317465081810951
          0.6311854124069214 0.6306485757231712 0.6301266252994537 0.6296348795294762 0.6291504204273224 0.6286808773875237
          0.6282372251152992 0.6278194114565849 0.6274219825863838 0.6270441934466362 0.6266919821500778 0.6263621225953102
          0.6260479241609573 0.6257485300302505 0.625463180243969 0.6251923218369484 0.6249302923679352 0.6246805936098099
          0.624447412788868 0.6242351159453392 0.6240308657288551 0.623832456767559 0.6236436292529106 0.6234632954001427
          0.6232944428920746 0.6231367811560631 0.6229861229658127 0.622843936085701 0.6227114051580429 0.622587762773037
          0.6224725469946861 0.6223666146397591 0.6222639009356499 0.6221665516495705 0.622074767947197 0.6219887509942055
          0.6219067573547363 0.6218298301100731 0.6217580661177635 0.6216911971569061 0.6216292604804039 0.6215704381465912
          0.6215142980217934 0.6214621812105179 0.6214139312505722 0.6213694587349892 0.6213271766901016 0.6212890446186066
          0.6212550327181816 0.6212252378463745 0.6658233925700188 0.6663347408175468 0.6668006554245949 0.6670883148908615
          0.667137548327446 0.6669349372386932 0.6664693057537079 0.6658852249383926 0.6650822311639786 0.664278469979763
          0.6634146943688393 0.6626207306981087 0.6617980599403381 0.6608498096466064 0.6599459126591682 0.6589905917644501
          0.6580101326107979 0.6570521891117096 0.6560919433832169 0.655190035700798 0.6542588546872139 0.6533226892352104
          0.6523077562451363 0.6513261795043945 0.6503263339400291 0.6493510529398918 0.6484216824173927 0.6475748047232628
          0.6467365771532059 0.6459398716688156 0.6451699137687683 0.644389882683754 0.6436096057295799 0.6428108513355255
          0.6420161351561546 0.6412393897771835 0.6403998583555222 0.6395974680781364 0.6388582661747932 0.6381407380104065