<VTKFile type="PolyData" version="1.0" byte_order="LittleEndian" header_type="UInt64">
  <PolyData>
    <Piece NumberOfPoints="10000" NumberOfVerts="0" NumberOfLines="0" NumberOfStrips="0" NumberOfPolys="9801">
      <PointData>
        <DataArray type="Float32" Name="zvalue" NumberOfComponents="1" format="ascii" RangeMin="0.6358821615576744" RangeMax="61.93085336685181">
          14.8236083984375 14.358558297157288 13.901726424694061 13.450576663017273 13.004152178764343 12.562422573566437
          12.126283645629883 11.696219325065613 11.272964477539062 10.857763051986694 10.449669599533081 10.049524307250977
          9.655518233776093 9.267873764038086 8.887623995542526 8.51558804512024 8.15338397026062 7.803482323884964
          7.4620577692985535 7.127522885799408 6.7999157309532166 6.480428516864777 6.17021518945694 5.870022654533386
          5.58195686340332 5.306743085384369 5.043839156627655 4.789530336856842 4.544482856988907 4.310666352510452
          4.08986508846283 3.8863245844841003 3.7020712196826935 3.534199684858322 3.382443979382515 3.247870832681656
          3.131950855255127 3.032344400882721 2.949203073978424 2.8826910257339478 2.8354698419570923 2.8077686727046967
          2.797770172357559 2.8073424994945526 2.8392345756292343 2.8946145474910736 2.9727821946144104 3.07235287129879
          3.1897289603948593 3.321875736117363 3.480547681450844 3.6616909503936768 3.871476024389267 4.10005784034729
          4.352945566177368 4.63830503821373 4.967507690191269 5.340700566768646 5.773837864398956 6.252165257930756
          6.770393431186676 7.317798376083374 7.898816168308258 8.528877139091492 9.22328096628189 9.972033619880676
          10.786349952220917 11.627872586250305 12.491384267807007 13.378033518791199 14.300089120864868 15.237212419509888
          16.1877783536911 17.163715481758118 18.183692455291748 19.290430188179016 20.542072057724 22.054424285888672
          24.186052441596985 27.8499356508255 37.05393064022064 60.15193700790405 60.88734698295593 32.08025646209717
          12.336060523986816 5.906824767589569 3.937700480222702 2.8395904898643494 1.8511176705360413 1.121224582195282
          0.7729341015219688 0.6807642579078674 0.664698138833046 0.7270653769373894 0.8559253811836243 1.0256025157868862
          1.2217208333313465 1.4286410957574844 1.6380328759551048 1.8454692736268044 14.25416648387909 13.802905261516571
          13.358096480369568 12.919758081436157 12.486691534519196 12.058199763298035 11.634407043457031 11.216435551643372
          10.804865717887878 10.400720179080963 10.004012703895569 9.6149423122406 9.233341813087463 8.85712617635727
          8.488515615463257 8.127280831336975 7.774764746427536 7.433090955018997 7.1020312905311584 6.778414368629456
          6.462242066860199 6.152325600385666 5.851703226566315 5.561557412147522 5.280518621206284 5.013667583465576
          4.759353056550026 4.514813601970673 4.279115468263626 4.054152756929398 3.8420725017786026 3.6446036994457245
          3.4674948155879974 3.3070716857910156 3.162571296095848 3.036358416080475 2.9286247938871384 2.836407959461212
          2.760722190141678 2.702496886253357 2.6623965352773666 2.6439438462257385 2.643463224172592 2.6609632670879364
          2.7044632136821747 2.7732034027576447 2.8654337525367737 2.979041486978531 3.109446167945862 3.2621594667434692
          3.4407081305980682 3.6474381387233734 3.8799720108509064 4.130104199051857 4.4080323576927185 4.717499181628227
          5.070046603679657 5.473195135593414 5.923717796802521 6.41497614979744 6.942392408847809 7.496722608804703
          8.088329404592514 8.733271330595016 9.436109900474548 10.20555031299591 11.015777885913849 11.850757598876953
          12.710830271244049 13.60873430967331 14.535131633281708 15.477210223674774 16.44656890630722 17.46191370487213
          18.55890464782715 19.799200415611267 21.27328586578369 23.225608706474304 26.383686184883118 32.91613817214966
          53.034687995910645 61.93085336685181 44.43318271636963 16.49731421470642 6.921630650758743 4.13583467900753
          3.0142627358436584 1.9356922060251236 1.1526647508144379 0.7820687219500542 0.6825090795755386 0.6645791754126549
          0.7288878485560417 0.8605412282049656 1.033359158784151 1.2305183075368404 1.4382919371128082 1.6475601345300674
          1.8552424386143684 2.0708503052592278 13.683228611946106 13.247677326202393 12.815648436546326 12.390125393867493
          11.97020173072815 11.555177569389343 11.144609451293945 10.738828778266907 10.338997185230255 9.94598764181137
          9.560929358005524 9.182731091976166 8.812475979328156 8.448779165744781 8.091335266828537 7.741657853126526
          7.399948924779892 7.066668450832367 6.745025217533112 6.432192325592041 6.126486659049988 5.827961206436157
          5.536683261394501 5.256395399570465 4.98507496714592 4.724905356764793 4.479547441005707 4.245241284370422
          4.019150882959366 3.8027683049440384 3.599085181951523 3.409567415714264 3.2378184646368027 3.0850080251693726
          2.9478075951337814 2.829804390668869 2.7307327687740326 2.6460030376911163 2.577841132879257 2.5280027985572815
          2.4966134130954742 2.4855221807956696 2.4952845871448517 2.523706763982773 2.579889565706253 2.6590365171432495
          2.7643928229808807 2.893642023205757 3.0410046577453613 3.2133592069149017 3.415622591972351 3.65140563249588
          3.908065766096115 4.186089634895325 4.482932209968567 4.818183958530426 5.199934303760529 5.624955832958221
          6.0899404883384705 6.595119923353195 7.126023352146149 7.687640964984894 8.289888709783554 8.945062637329102
          9.65986293554306 10.431702256202698 11.232098519802094 12.062619864940643 12.92771863937378 13.837247967720032
          14.76462197303772 15.719688892364502 16.72290974855423 17.80062985420227 19.01665496826172 20.45036554336548
          22.268438935279846 24.988559126853943 30.09366524219513 44.027915716171265 59.526997089385986 55.52443218231201
          23.405714988708496 8.67244166135788 4.489587187767029 3.1540454626083374 2.0422612205147743 1.1979688182473183
          0.7948872148990631 0.6850377693772316 0.6643458716571331 0.7304483503103256 0.864393025636673 1.0403871051967144
          1.238728616386652 1.4474543519318104 1.6561628505587578 1.8643076121807098 2.080215021967888 2.2967818900942802
          13.111942410469055 12.691495776176453 12.273751735687256 11.862092137336731 11.454637169837952 11.053083539009094
          10.65606141090393 10.263435244560242 9.875688672065735 9.494050920009613 9.11996379494667 8.7535759806633
          8.393763482570648 8.042101800441742 7.6964831948280334 7.358367145061493 7.027497589588165 6.704902112483978
          6.391771733760834 6.088867962360382 5.794128835201263 5.506430625915527 5.225558787584305 4.955031037330627
          4.694365635514259 4.443555623292923 4.204843774437904 3.979599893093109 3.76340651512146 3.5564789324998856
          3.360988587141037 3.1793483942747116 3.0135988295078278 2.8682067692279816 2.738365799188614 2.628240928053856
          2.537524238228798 2.4607455134391785 2.400926947593689 2.3594076335430145 2.336561717092991 2.335151121020317
          2.3548072203993797 2.3955530151724815 2.461324565112591 2.5541599839925766 2.6731522381305695 2.8165432512760162
          2.9807116389274597 3.175572916865349 3.408311277627945 3.6730327010154724 3.9577152132987976 4.2598966807127
          4.583704710006714 4.948319524526596 5.35304057598114 5.797009170055389 6.276908993721008 6.786605626344681
          7.323135584592819 7.889777034521103 8.49606078863144 9.15654307603836 9.882810771465302 10.645909428596497
          11.439762890338898 12.269413113594055 13.147287428379059 14.056037068367004 14.991867065429688 15.974714159965515
          17.028845846652985 18.207733273506165 19.593753457069397 21.306686401367188 23.695345640182495 27.79903769493103
          37.15949261188507 56.659889698028564 58.3989953994751 34.28135561943054 11.567449748516083 5.105558633804321
          3.329162836074829 2.175975814461708 1.2571311295032501 0.812378279864788 0.688726007938385 0.6640686579048634
          0.7315991222858429 0.8678870238363743 1.0468919835984707 1.2463738359510899 1.4560622051358223 1.6642187908291817
          1.8728364333510399 2.0890706181526184 2.3058785423636436 2.5215087309479713 12.541248202323914 12.13552474975586
          11.73246157169342 11.332483291625977 10.9409761428833 10.551809430122375 10.16845554113388 9.789375245571136
          9.41471666097641 9.045000493526459 8.68168693780899 8.326501190662384 7.978421330451965 7.6372111439704895
          7.303671896457672 6.976887732744217 6.657990276813507 6.346336543560028 6.042383402585983 5.749068468809128
          5.46477347612381 5.188666224479675 4.919390425086021 4.65814408659935 4.407537639141083 4.166187971830368
          3.936397284269333 3.7181735187768936 3.511810064315796 3.3144906014204025 3.1275807321071625 2.9546339958906174
          2.7966112941503525 2.6568687558174133 2.5347041934728622 2.432366833090782 2.350250042974949 2.281337730586529
          2.2300354838371277 2.1972909718751907 2.183331623673439 2.1915403604507446 2.222590833902359 2.2747882157564163
          2.3519241362810135 2.457127183675766 2.588262289762497 2.745659664273262 2.9295786917209625 3.1533678472042084
          3.4198709577322006 3.713730424642563 4.024904623627663 4.352949306368828 4.711873710155487 5.1110701858997345
          5.535231351852417 5.989995002746582 6.477292776107788 6.990419417619705 7.52970427274704 8.092636227607727
          8.700985252857208 9.375267028808594 10.09470784664154 10.846078515052795 11.63536536693573 12.473928570747375
          13.356248795986176 14.268285572528839 15.225317895412445 16.250619649887085 17.38526326417923 18.712942361831665
          20.333350896835327 22.477534770965576 25.84295153617859 32.61465036869049 50.06066131591797 55.1471791267395
          47.540616035461426 16.275105237960815 6.104013800621033 3.5484059154987335 2.342867538332939 1.3319782242178917
          0.8358132094144821 0.6938644424080849 0.66387939453125 0.7321109473705292 0.871100690215826 1.0527004264295101
          1.2535813227295876 1.4634073004126549 1.671752192080021 1.8807078450918198 2.097429007291794 2.3144754245877266
          2.5299723744392395 2.7455909475684166 11.96939468383789 11.580574631690979 11.191895246505737 10.806148648262024
          10.423900842666626 10.052431225776672 9.681539833545685 9.31637305021286 8.955161154270172 8.598475158214569
          8.246874511241913 7.901636600494385 7.565438210964203 7.235754042863846 6.913166403770447 6.597744345664978
          6.290394514799118 5.989904016256332 5.697818607091904 5.414152890443802 5.139904588460922 4.87427744269371
          4.616069778800011 4.36517596244812 4.124553367495537 3.8929295241832733 3.672480031847954 3.4629449248313904
          3.2651006281375885 3.0774931609630585 2.899433583021164 2.7351335883140564 2.5855612754821777 2.4523444324731827
          2.337583839893341 2.242998331785202 2.1690923273563385 2.109069839119911 2.0663667768239975 2.0415416434407234
          2.0365554988384247 2.054689809679985 2.09575242549181 2.159007340669632 2.248764805495739 2.366110995411873
          2.5104345083236694 2.6848122477531433 2.8927803933620453 3.1497506499290466 3.4504878520965576 3.773315519094467
          4.111532673239708 4.477624535560608 4.882113814353943 5.299719393253326 5.734723150730133 6.1996840834617615
          6.6912567019462585 7.205565512180328 7.7360533475875854 8.296860843896866 8.914090275764465 9.583818107843399
          10.291447222232819 11.034050107002258 11.827104985713959 12.67411470413208 13.55557370185852 14.480754733085632
          15.472728848457336 16.56057381629944 17.820788741111755 19.35008990764618 21.307220458984375 24.152405858039856
          29.281984329223633 41.55423831939697 52.99005842208862 54.25753998756409 24.551535964012146 7.8786768317222595
          3.864722639322281 2.558869183063507 1.4270249009132385 0.8668381869792938 0.7006004750728607 0.6635773107409477
          0.7322417534887791 0.8735988661646843 1.0577793158590794 1.2602358274161816 1.4701110050082207 1.6789652481675148
          1.8880389407277107 2.1052339300513268 2.322449803352356 2.537879914045334 2.753279432654381 2.9698789045214653
          11.402046084403992 11.02414983510971 10.652723550796509 10.28132712841034 9.912588357925415 9.548631429672241
          9.196323931217194 8.843971192836761 8.496814489364624 8.153456300497055 7.8145111203193665 7.480752915143967
          7.154797255992889 6.8368953466415405 6.525594413280487 6.221826434135437 5.925487637519836 5.637493669986725
          5.356573402881622 5.083064138889313 4.8189935982227325 4.563017562031746 4.316167593002319 4.0763963758945465
          3.845340445637703 3.6237476766109467 3.412359908223152 3.212922915816307 3.023828089237213 2.8453420996665955
          2.6774019598960876 2.52175273001194 2.3810091391205788 2.255764216184616 2.1477811336517334 2.0611261427402496
          1.9951733723282814 1.9440979212522507 1.9091793075203896 1.8924414739012718 1.8965339958667755 1.9239014312624931
          1.9746561348438263 2.0483055487275124 2.150605171918869 2.2803226858377457 2.4416987150907516 2.636206328868866
          2.875658765435219 3.169761508703232 3.5008550882339478 3.851997211575508 4.228202074766159 4.643981844186783
          5.072735130786896 5.507508099079132 5.956383049488068 6.42527049779892 6.917860686779022 7.421832799911499
          7.939863532781601 8.503234475851059 9.11902779340744 9.776343137025833 10.470366597175598 11.213437795639038
          12.015369057655334 12.860761761665344 13.749643504619598 14.701597213745117 15.743409395217896 16.930442988872528
          18.365592896938324 20.168203830718994 22.640649557113647 26.666489124298096 35.16992199420929 51.296372413635254
          51.05717372894287 37.473217248916626 11.171878576278687 4.477613523602486 2.756428509950638 1.5384177565574646
          0.9078237041831017 0.7097194939851761 0.6630888804793358 0.7317649535834789 0.8752426467835903 1.0621527545154095
          1.2662379443645477 1.476181373000145 1.6856954991817474 1.8948552012443542 2.112501621246338 2.3299188911914825
          2.5452750623226166 2.7603298127651215 2.976465195417404 3.1934645622968674 10.841756224632263 10.473278045654297
          10.111780226230621 9.757602989673615 9.403689861297607 9.05200245976448 8.70756796002388 8.372939109802246
          8.039133727550507 7.709823876619339 7.383823752403259 7.062786936759949 6.747409015893936 6.44051405787468
          6.141395568847656 5.849303215742111 5.564702421426773 5.287336647510529 5.017580509185791 4.755475550889969
          4.501504123210907 4.256175100803375 4.019187435507774 3.790845960378647 3.5701915323734283 3.358752503991127
          3.156952828168869 2.967285230755806 2.788205087184906 2.6195167899131775 2.4614082127809525 2.3147900700569153
          2.1833519637584686 2.0665504708886147 1.9670509994029999 1.886956848204136 1.828729435801506 1.7865668088197708
          1.759323038160801 1.750336617231369 1.7628103345632553 1.7991985380649567 1.858824759721756 1.9433873295783997
          2.0566257685422897 2.200446993112564 2.382519267499447 2.6057212948799133 2.882748454809189 3.213173344731331
          3.579536348581314 3.965469613671303 4.3914759904146194 4.838572219014168 5.2897869348526 5.740965664386749
          6.195213109254837 6.667256027460098 7.148137301206589 7.63146311044693 8.144173800945282 8.70356833934784
          9.306525528430939 9.950147449970245 10.636535704135895 11.386138558387756 12.189012348651886 13.036715507507324
          13.944360435009003 14.93667483329773 16.052415132522583 17.38917589187622 19.051748156547546 21.243149042129517
          24.5319402217865 30.68864917755127 44.79932618141174 47.40116238594055 48.899285316467285 17.11747282743454
          5.567322820425034 3.0271883606910706 1.6895713061094284 0.9647241830825806 0.7220354825258255 0.6624711751937866
          0.7313731089234352 0.8760509006679058 1.065606601536274 1.2716091983020306 1.481608048081398 1.6917833387851715
          1.9010709896683693 2.1190616488456726 2.3369950652122498 2.5518824458122253 2.766770802438259 2.9825180247426033
          3.1995939910411835 3.4180013835430145 10.284586131572723 9.928966283798218 9.577437996864319 9.232318669557571
          8.895273327827454 8.558905810117722 8.224649995565414 7.89935165643692 7.582375109195709 7.266664147377014
          6.954891920089722 6.6467225551605225 6.343870162963867 6.048019886016846 5.760370552539825 5.479946494102478
          5.206646502017975 4.940294027328491 4.681680843234062 4.43074244260788 4.187120869755745 3.952770099043846
          3.7264353930950165 3.5084692984819412 3.29913192987442 3.0981542766094208 2.9068596065044403 2.7271082550287247
          2.558671623468399 2.400565817952156 2.251874677836895 2.1146018132567406 1.9927781894803047 1.8848051875829697
          1.7944748476147652 1.7213416397571564 1.6702504307031631 1.6361731141805649 1.6166123524308205 1.6152982115745544
          1.6357046365737915 1.6805623322725296 1.748789168894291 1.8429277539253235 1.9669601693749428 2.127597324550152
          2.334516689181328 2.58851021528244 2.905867040157318 3.2819131314754486 3.6818314641714096 4.118577539920807
          4.594401657581329 5.071990519762039 5.5379608273506165 5.996642857789993 6.455903589725494 6.91450297832489
          7.370134472846985 7.832819074392319 8.340139389038086 8.886589586734772 9.473552703857422 10.104455471038818
          10.79579746723175 11.548095107078552 12.34925103187561 13.208573579788208 14.147746562957764 15.197345614433289
          16.43219292163849 17.962998867034912 19.929673433303833 22.703667879104614 27.354809522628784 37.30826663970947
          47.4505090713501 47.7217116355896 28.276611804962158 7.751511335372925 3.3704446256160736 1.8903601467609406
          1.0435474812984467 0.7381420433521271 0.6618755459785461 0.7301726154983044 0.8761178217828274 1.0683032721281052
          1.2758110761642456 1.4865728691220284 1.6972934007644653 1.9068292751908302 2.124990940093994 2.34350349009037
          2.5579059943556786 2.772611491382122 2.9881146252155304 3.2052352726459503 3.4237699806690216 3.643317922949791
          9.730688661336899 9.387989342212677 9.04918110370636 8.714561074972153 8.386244416236877 8.065863937139511
          7.746985077857971 7.430240958929062 7.124090552330017 6.8241090178489685 6.526493400335312 6.232686281204224
          5.943426132202148 5.659381091594696 5.382400810718536 5.11334702372551 4.851499289274216 4.596842601895332
          4.349003121256828 4.1087817549705505 3.876687854528427 3.6529236137866974 3.4377374947071075 3.2304461002349854
          3.031912326812744 2.8427347242832184 2.6622719764709473 2.4928953796625137 2.335150718688965 2.1877172216773033
          2.050358936190605 1.922977238893509 1.8102174401283264 1.711807370185852 1.6305133253335953 1.5658699125051498
          1.5206225961446762 1.4942648857831955 1.4820227771997452 1.4875994697213173 1.515899047255516 1.568081110715866
          1.6436662077903748 1.746705450117588 1.8828874081373215 2.0631318390369415 2.296818345785141 2.5880861580371857
          2.951959729194641 3.3654865622520447 3.812269926071167 4.311353921890259 4.824456989765167 5.325412452220917
          5.80801323056221 6.276904940605164 6.726654887199402 7.157072007656097 7.572723388671875 8.029065668582916
          8.518562972545624 9.04608803987503 9.619952261447906 10.249127507209778 10.941739201545715 11.69240927696228
          12.499801397323608 13.382577896118164 14.36703622341156 15.50462794303894 16.906765818595886 18.682020664215088
          21.07303822040558 24.742247581481934 31.73526692390442 45.03993320465088 42.79892349243164 42.67291855812073
          12.229626774787903 4.061394393444061 2.179970934987068 1.1466474458575249 0.7595956102013588 0.6615647375583649
          0.7276942320168018 0.8754787370562553 1.0704596564173698 1.2791033312678337 1.4908566176891327 1.702274277806282
          1.912260740995407 2.1303355544805527 2.3494363352656364 2.56330493837595 2.777762822806835 2.9932520166039467
          3.2104345858097076 3.429098814725876 3.6486459225416183 3.8711405843496323 9.18010327219963 8.8502858877182
          8.524487793445587 8.202439785003662 7.884688138961792 7.573167383670807 7.269419372081757 6.967931807041168
          6.668908655643463 6.381088763475418 6.098781496286392 5.819929897785187 5.5451207756996155 5.2736848294734955
          5.007970690727234 4.749959796667099 4.499499708414078 4.255851373076439 4.02015233039856 3.7908934950828552
          3.5695785582065582 3.3569574654102325 3.153088852763176 2.9571463763713837 2.769795060157776 2.5928906053304672
          2.423672839999199 2.265259087085724 2.118802085518837 1.9825174510478973 1.856576070189476 1.740804985165596
          1.636909119784832 1.5482910871505737 1.4762075915932655 1.4200972840189934 1.3819046765565872 1.3614605218172073
          1.3561899065971375 1.368043690919876 1.403059460222721 1.4613859206438065 1.544297993183136 1.6551474779844284
          1.805219143629074 2.009491190314293 2.2722650095820427 2.606049567461014 3.0193702280521393 3.4730968326330185
          3.9802936762571335 4.52892279624939 5.075185716152191 5.598084270954132 6.1025760769844055 6.567030340433121
          6.989286303520203 7.374187648296356 7.7737932205200195 8.203132301568985 8.67141342163086 9.182506740093231
          9.74871614575386 10.37520456314087 11.070343255996704 11.823475003242493 12.646476984024048 13.564684748649597
          14.617072939872742 15.89247053861618 17.495460510253906 19.586714506149292 22.59339952468872 27.706007719039917
          38.126235485076904 42.54792356491089 44.4377064704895 21.502634644508362 5.387995064258575 2.4826528429985046
          1.2885034829378128 0.7895950824022293 0.6619332507252693 0.7240538150072098 0.8739249557256699 1.0716609843075275
          1.28166339173913 1.4946451112627983 1.706536017358303 1.9170783013105392 2.135171800851822 2.3542608991265297
          2.5682507902383804 2.7824897095561028 2.9979178979992867 3.2151742428541183 3.433992177248001 3.6535568237304688
          3.8755107671022415 4.10027089715004 8.644855439662933 8.317959368228912 8.002977907657623 7.6941245794296265
          7.388792544603348 7.087873160839081 6.793405085802078 6.506045043468475 6.221376359462738 5.941697865724564
          5.671727657318115 5.407896399497986 5.147574424743652 4.890373170375824 4.636912897229195 4.3900923281908035
          4.150909945368767 3.9189096093177795 3.69386026263237 3.4770820438861847 3.2668249905109406 3.065553694963455
          2.873125821352005 2.688642919063568 2.5130824148654938 2.3472292721271515 2.19139514118433 2.0447166562080383
          1.909876748919487 1.7860059812664986 1.672016978263855 1.5681289061903954 1.4749346822500229 1.3955166712403297
          1.3326682224869728 1.2852324470877647 1.2539014741778374 1.238884449005127 1.2397779673337936 1.2573026269674301
          1.2974571138620377 1.3611011058092117 1.4499323666095734 1.570142686367035 1.735535889863968 1.96483314037323
          2.260843627154827 2.6444190442562103 3.1000318229198456 3.6070573329925537 4.179418280720711 4.769402086734772
          5.343362212181091 5.89909690618515 6.408577919006348 6.843967497348785 7.221426039934158 7.578852653503418
          7.947911590337753 8.35013335943222 8.795353472232819 9.296400129795074 9.857349455356598 10.486020922660828
          11.181138396263123 11.945000886917114 12.79632019996643 13.769372940063477 14.926705479621887 16.3741854429245
          18.223673403263092 20.752376794815063 24.66840147972107 31.949435234069824 42.7130126953125 39.02095699310303
          36.705427169799805 8.55287778377533 2.9261171370744705 1.4862462878227234 0.8332762718200684 0.6635486856102943
          0.71892349421978 0.8722686469554901 1.0726300552487373 1.2839627638459206 1.4980340152978897 1.710257388651371
          1.9214147552847862 2.139641150832176 2.3584471568465233 2.572685644030571 2.786798916757107 3.0021816790103912
          3.21943861246109 3.4382527470588684 3.657874420285225 3.8794715851545334 4.104008421301842 4.333186998963356
          8.119591355323792 7.800122797489166 7.4890963435173035 7.188945055007935 6.896833747625351 6.608291685581207
          6.3241764307022095 6.046460866928101 5.775524973869324 5.507943332195282 5.248707950115204 4.996605604887009
          4.75024938583374 4.508256688714027 4.269047662615776 4.033877789974213 3.806009531021118 3.5855866074562073
          3.372243493795395 3.1668059527873993 2.9685365557670593 2.7780489921569824 2.596729874610901 2.4255990236997604
          2.2623925656080246 2.1083578169345856 1.9656576216220856 1.8323717638850212 1.7094938606023788 1.5984705686569214
          1.4973318800330162 1.4056062549352646 1.3246207013726234 1.2558755353093147 1.2010295987129211 1.1619814708828926
          1.1369482427835464 1.127774402499199 1.1336776167154312 1.1555753573775291 1.1996105462312698 1.26762256026268
          1.361359789967537 1.4911405891180038 1.6740369498729706 1.930972084403038 2.2660481333732605 2.7016296982765198
          3.2022255957126617 3.7799803018569946 4.401906132698059 5.02535080909729 5.638897687196732 6.210467755794525
          6.69016969203949 7.084541469812393 7.4278616309165955 7.750322639942169 8.086755454540253 8.463214218616486
          8.892494559288025 9.387377381324768 9.945137113332748 10.578080415725708 11.27901554107666 12.062825918197632
          12.958499789237976 14.013013899326324 15.318625569343567 16.965581238269806 19.13237500190735 22.258548974990845
          27.476369380950928 37.225446820259094 38.589593291282654 41.05366516113281 15.871323585510254 3.7506829500198364
          1.788407988846302 0.8993667811155319 0.6673755273222923 0.7124986611306667 0.8688222244381905 1.0725548416376114
          1.2858471870422363 1.5011066049337387 1.7137152329087257 1.9253540113568306 2.14348541200161 2.3622055128216743
          2.5766307786107063 2.790767565369606 3.006090208888054 3.2233152836561203 3.4419987350702286 3.661474362015724
          3.8830937445163727 4.1074399054050446 4.336847886443138 4.569528818130493 7.604418516159058 7.292652606964111
          6.989504814147949 6.6936827301979065 6.408969402313232 6.132670491933823 5.86088228225708 5.5931660532951355
          5.332384616136551 5.078912019729614 4.829212784767151 4.589263945817947 4.354975983500481 4.125966653227806
          3.9024065136909485 3.681682765483856 3.4659534096717834 3.2565638422966003 3.0545503050088882 2.8598845154047012
          2.6746035367250443 2.4970360845327377 2.327886700630188 2.1692277044057846 2.019774168729782 1.8789582252502441
          1.7489973977208138 1.63064706325531 1.5205701738595963 1.4227325469255447 1.3347398936748505 1.255908027291298
          1.186705343425274 1.12825146317482 1.0833699256181717 1.051259458065033 1.0324064195156097 1.0280114263296127
          1.0385182350873947 1.0636342763900757 1.1099462881684303 1.1804238110780716 1.2788725048303604 1.4190314933657646
          1.6215743869543076 1.908187359571457 2.2888598293066025 2.769386738538742 3.3337000757455826 3.973340481519699
          4.639662653207779 5.303944230079651 5.945643305778503 6.497673004865646 6.9418462216854095 7.296253263950348
          7.599483251571655 7.881591081619263 8.184560000896454 8.545322299003601 8.964971721172333 9.451932311058044
          10.014771521091461 10.65083134174347 11.368580102920532 12.18766176700592 13.153924822807312 14.328521132469177
          15.800923109054565 17.687415599822998 20.263806104660034 24.18125343322754 31.102561473846436 39.7026252746582
          35.67591392993927 30.685563325881958 5.703690350055695 2.1615783348679543 1.0008748918771744 0.6750864684581757
          0.7048931382596493 0.8638073541224003 1.0713325440883636 1.2870302237570286 1.5035217851400375 1.7169437855482101
          1.9294630587100983 2.1470431610941887 2.365414075553417 2.5798827782273293 2.7942330837249756 3.0095744282007217
          3.2267145961523056 3.445350155234337 3.6646090149879456 3.8863617330789566 4.110755190253258 4.340158522129059
          4.5735011249780655 4.809746399521828 7.096420049667358 6.793835610151291 6.498978912830353 6.212024480104446
          5.931651204824448 5.662285625934601 5.401556372642517 5.146097391843796 4.895335033535957 4.652766793966293
          4.41652312874794 4.184677720069885 3.9636524617671967 3.7471621930599213 3.535974457859993 3.331354930996895
          3.129228264093399 2.9325221180915833 2.7420389354228973 2.559994474053383 2.3866034150123596 2.222972944378853
          2.067626804113388 1.921715885400772 1.787020742893219 1.6606074273586273 1.5445543080568314 1.4400721415877342
          1.3454674407839775 1.2608399912714958 1.18630800396204 1.1207443699240685 1.063237190246582 1.014920987188816
          0.9793477356433868 0.9544292017817497 0.9404833167791367 0.9401318952441216 0.9539242386817932 0.9820830300450325
          1.0294878259301186 1.100196212530136 1.203213132917881 1.3547153323888779 1.5799263790249825 1.893752858042717
          2.32827727496624 2.859765872359276 3.491498649120331 4.1849560886621475 4.892364054918289 5.598278284072876
          6.231289327144623 6.7511385679244995 7.15696382522583 7.467964470386505 7.723984599113464 7.969504117965698
          8.248693197965622 8.596938133239746 9.008233726024628 9.49504017829895 10.063549280166626 10.711577296257019
          11.457888722419739 12.337913751602173 13.398768544197083 14.720538854598999 16.383514404296875 18.556368470191956