<VTKFile type="PolyData" version="1.0" byte_order="LittleEndian" header_type="UInt64">
  <PolyData>
    <Piece NumberOfPoints="10000" NumberOfVerts="0" NumberOfLines="0" NumberOfStrips="0" NumberOfPolys="9801">
      <PointData>
        <DataArray type="Float32" Name="zvalue" NumberOfComponents="1" format="ascii" RangeMin="0.5143730826675892" RangeMax="1.3485061563551426">
          0.7676993831992149 0.7684596180915833 0.7861521318554878 0.7552406936883926 0.7232703343033791 0.7275317534804344
          0.7350515946745872 0.7378784343600273 0.7333003357052803 0.7247525602579117 0.7250781953334808 0.7156128436326981
          0.7159593254327774 0.7068446278572083 0.7156316488981247 0.7259568199515343 0.7357655167579651 0.736103318631649
          0.736474297940731 0.7369609922170639 0.7276213690638542 0.7280546575784683 0.7285355031490326 0.7393453866243362
          0.7397447973489761 0.7404572889208794 0.7413218542933464 0.7524736672639847 0.7530075162649155 0.7538513690233231
          0.7547492608428001 0.7557035759091377 0.7566959038376808 0.7577083855867386 0.7587395012378693 0.7598495408892632
          0.7609899267554283 0.7621807977557182 0.7633837908506393 0.764591820538044 0.76582982391119 0.7671267315745354
          0.7684526592493057 0.7698314115405083 0.7712494060397148 0.7727082744240761 0.7741956934332848 0.7757048904895782
          0.7772302776575089 0.7787872329354286 0.7803675606846809 0.7819509133696556 0.7835603207349777 0.785208947956562
          0.7869012206792831 0.7886544913053513 0.7904530614614487 0.7922916263341904 0.7941558435559273 0.7960560843348503
          0.7979945540428162 0.7999688535928726 0.8019730970263481 0.8040203973650932 0.8061115220189095 0.8082551136612892
          0.8104337677359581 0.8126562535762787 0.8149227872490883 0.8172339498996735 0.8195645064115524 0.8219032883644104
          0.8242856115102768 0.8267118036746979 0.8291820511221886 0.8316944167017937 0.8342363461852074 0.8368273079395294
          0.839463047683239 0.8421556204557419 0.8449078872799873 0.8476831540465355 0.8505159094929695 0.8534183129668236
          0.8563669621944427 0.8593614920973778 0.8624039813876152 0.8655186891555786 0.8686779960989952 0.8719021379947662
          0.8751771003007889 0.8784822449088097 0.8818316236138344 0.8852254822850227 0.8886405602097511 0.8920973613858223
          0.8955818936228752 0.899091087281704 0.9026565849781036 0.8325871825218201 0.736748717725277 0.7589576914906502
          0.7682291865348816 0.7552338615059853 0.7186900749802589 0.7330632656812668 0.7453055307269096 0.728875957429409
          0.7373664304614067 0.715625561773777 0.7157178297638893 0.7158020436763763 0.7159704566001892 0.7161181345582008
          0.7164741605520248 0.7260099500417709 0.7358548939228058 0.7362155765295029 0.7366261780261993 0.737122543156147
          0.7376042678952217 0.7282190918922424 0.7287198379635811 0.7292553335428238 0.7399937361478806 0.7406671792268753
          0.7413814589381218 0.7421267554163933 0.7533959597349167 0.7542788684368134 0.7552082613110542 0.7561961337924004
          0.7572151198983192 0.7582423388957977 0.7593484446406364 0.7604908272624016 0.7616721168160439 0.7628885805606842
          0.7641168013215065 0.7653515934944153 0.7666523903608322 0.7679746523499489 0.7693586573004723 0.7707850560545921
          0.7722491770982742 0.7737594768404961 0.7752786725759506 0.776826798915863 0.7783994600176811 0.780001662671566
          0.7816144376993179 0.7832405045628548 0.7849074378609657 0.7866172343492508 0.7883851900696754 0.7902044653892517
          0.7920636534690857 0.7939542382955551 0.7958779558539391 0.7978382483124733 0.7998390421271324 0.8018703982234001
          0.8039447590708733 0.8060649707913399 0.8082394227385521 0.8104500249028206 0.812705785036087 0.8150069564580917
          0.8173538967967033 0.8197231292724609 0.8220997974276543 0.8245212882757187 0.826987974345684 0.8295001685619354
          0.832056000828743 0.8346425145864487 0.8372792899608612 0.8399622216820717 0.8427078053355217 0.8455201908946037
          0.8483510315418243 0.8512424975633621 0.8542000129818916 0.8572048842906952 0.8602571785449982 0.8633637204766273
          0.8665392696857452 0.869762733578682 0.8730568811297417 0.8763956278562546 0.8797605037689209 0.8831773549318314
          0.8866394758224487 0.8901273161172867 0.8936499878764153 0.8971905931830406 0.9007764384150505 0.9044075459241867
          0.834121435880661 0.911704033613205 0.7459871768951416 0.7544675096869469 0.7679618075489998 0.7503911480307579
          0.7361685261130333 0.7519820407032967 0.750827968120575 0.731116347014904 0.7382048889994621 0.7163202241063118
          0.7064402475953102 0.7158238217234612 0.7159986346960068 0.7162070050835609 0.7164100632071495 0.726093128323555
          0.735953077673912 0.7363430485129356 0.7370505556464195 0.7372819036245346 0.7377925366163254 0.7283964455127716
          0.7289124056696892 0.7294680699706078 0.7402519211173058 0.7409601509571075 0.7416920736432076 0.7424623146653175
          0.7538180574774742 0.7547359615564346 0.7556949257850647 0.7567161619663239 0.7577622085809708 0.7588380873203278
          0.7599806636571884 0.7611615434288979 0.7623898983001709 0.7636414021253586 0.7648720145225525 0.7661668732762337
          0.7674890160560608 0.7688795626163483 0.7703061997890472 0.771783359348774 0.773308627307415 0.7748420834541321
          0.776412345468998 0.7779989615082741 0.779620572924614 0.7812677398324013 0.7829121723771095 0.7845972180366516
          0.7863253578543663 0.7881082892417908 0.7899486720561981 0.791828416287899 0.7937463670969009 0.7956931963562965
          0.7976766899228096 0.7997038066387177 0.8017638176679611 0.8038668781518936 0.8060161173343658 0.8082210049033165
          0.8104657381772995 0.8127557933330536 0.8150927498936653 0.8174765706062317 0.819885864853859 0.822301521897316
          0.8247635364532471 0.8272721022367477 0.8298275992274284 0.8324293717741966 0.8350611925125122 0.8377453312277794
          0.8404771834611893 0.8432801961898804 0.846152275800705 0.8490406796336174 0.8519929796457291 0.8550076186656952
          0.8580710142850876 0.8611829578876495 0.8643559888005257 0.867594487965107 0.8708901107311249 0.8742513060569763
          0.877647690474987 0.8810829147696495 0.8845700919628143 0.8881026655435562 0.8916665017604828 0.8952426761388779
          0.8988553211092949 0.902519091963768 0.9062187969684601 0.835724338889122 0.913656622171402 0.9174205139279366
          0.7548708543181419 0.7637282684445381 0.7727127149701118 0.75900948792696 0.7380046248435974 0.7425476610660553
          0.7334437444806099 0.7202818542718887 0.7384699285030365 0.7064223811030388 0.7064219787716866 0.7127698138356209
          0.715317040681839 0.7162456139922142 0.7164515107870102 0.7357180789113045 0.7360686138272285 0.7364915013313293
          0.7272225171327591 0.7374515309929848 0.7379837334156036 0.7385714948177338 0.7291129156947136 0.7296941429376602
          0.7405328899621964 0.7412670105695724 0.7420259714126587 0.7428148612380028 0.7542364597320557 0.7552297487854958
          0.7562199160456657 0.7572632431983948 0.7583180740475655 0.7594680264592171 0.7606437802314758 0.7618635445833206
          0.7631455287337303 0.7643853276968002 0.7656735628843307 0.7670111432671547 0.7683822214603424 0.769823893904686
          0.7713083624839783 0.7728433012962341 0.7743926718831062 0.7759794220328331 0.7775893062353134 0.7792294695973396
          0.7808979749679565 0.7825732156634331 0.7842773720622063 0.786025233566761 0.7878234535455704 0.789685383439064
          0.7915872484445572 0.7935300841927528 0.7955005019903183 0.797509677708149 0.7995637133717537 0.801653116941452
          0.8037856966257095 0.8059649914503098 0.8081987276673317 0.810480959713459 0.8128063529729843 0.8151801750063896
          0.8176022171974182 0.8200527429580688 0.8225088566541672 0.8250126540660858 0.8275646194815636 0.8301648944616318
          0.8328139260411263 0.8354929462075233 0.8382261991500854 0.841012716293335 0.8438814803957939 0.8468051999807358
          0.8497532084584236 0.8527686074376106 0.8558424562215805 0.858966551721096 0.8621405437588692 0.8653823137283325
          0.8686870485544205 0.8720574229955673 0.875487320125103 0.8789435848593712 0.8824518695473671 0.886011928319931
          0.8896217048168182 0.8932455107569695 0.8968916833400726 0.9005828872323036 0.904322125017643 0.9080926552414894
          0.8373887240886688 0.9156722724437714 0.9194998741149902 0.9233642369508743 0.7760076746344566 0.7743155211210251
          0.7723276391625404 0.7492041662335396 0.7557093054056168 0.7335807979106903 0.7072350867092609 0.7112613469362259
          0.7410496324300766 0.7063281312584877 0.7063992768526077 0.7067214921116829 0.7254603505134583 0.716574564576149
          0.7164881899952888 0.7358045279979706 0.7362094148993492 0.7366385459899902 0.7371596097946167 0.7376363649964333
          0.7381902039051056 0.7387865483760834 0.7293373197317123 0.7299366146326065 0.7408332377672195 0.7415771409869194
          0.7423896566033363 0.7432201728224754 0.75472641736269 0.7557335570454597 0.7567666247487068 0.7578243464231491
          0.7589470893144608 0.7601188123226166 0.761336050927639 0.7626163884997368 0.7638932019472122 0.7651721239089966
          0.7665211036801338 0.7678913027048111 0.7693273723125458 0.7708137184381485 0.7723629325628281 0.7739332169294357
          0.7755322605371475 0.7771679013967514 0.7788235694169998 0.7805177718400955 0.7822249010205269 0.7839486077427864
          0.785716637969017 0.787530742585659 0.7894143462181091 0.7913392037153244 0.793303519487381 0.7953014001250267
          0.7973367944359779 0.7994184792041779 0.8015380352735519 0.8037009984254837 0.805912122130394 0.8081746101379395
          0.8104955554008484 0.812857374548912 0.8152692914009094 0.8177310153841972 0.8202240392565727 0.8227218613028526
          0.825269028544426 0.8278658092021942 0.8305125758051872 0.8332095518708229 0.8359391987323761 0.8387225940823555
          0.8415686264634132 0.8445031940937042 0.8474799916148186 0.8504898026585579 0.8535705655813217 0.8567059636116028
          0.8598931059241295 0.8631315901875496 0.8664445206522942 0.8698217421770096 0.8732659742236137 0.8767639473080635
          0.8802856355905533 0.883870467543602 0.8875053226947784 0.8911908194422722 0.8948773071169853 0.8986000269651413
          0.9023730754852295 0.9061868488788605 0.9100307822227478 0.839126318693161 0.9177499338984489 0.9216567277908325
          0.9256020560860634 0.9295707419514656 0.7875903993844986 0.7945616319775581 0.7850154042243958 0.7568319514393806
          0.7603636533021927 0.7243273928761482 0.7067584320902824 0.7021798565983772 0.7112638056278229 0.7201144024729729
          0.706410601735115 0.70664843916893 0.7256936207413673 0.7163507863879204 0.7165605649352074 0.735936239361763
          0.7363516241312027 0.736800380051136 0.737312987446785 0.7378339692950249 0.7383998185396194 0.7390293776988983
          0.7397191226482391 0.7302350774407387 0.7411587759852409 0.7524816989898682 0.742742270231247 0.7436156943440437
          0.7552547678351402 0.7562495991587639 0.7573423087596893 0.758423201739788 0.7595943287014961 0.7608068510890007
          0.7620702385902405 0.7634150311350822 0.7646683603525162 0.7660164460539818 0.7673905342817307 0.7688279524445534
          0.7703163847327232 0.7718663513660431 0.7734626531600952 0.7750733867287636 0.7767251133918762 0.7784079760313034
          0.7801216542720795 0.7818653136491776 0.7836084887385368 0.7853992134332657 0.7872342318296432 0.789135180413723
          0.7910834774374962 0.7930676937103271 0.7950955778360367 0.7971578538417816 0.7992678731679916 0.8014183714985847
          0.8036125376820564 0.8058564811944962 0.8081507831811905 0.8105093613266945 0.8129089176654816 0.8153601512312889
          0.8178628459572792 0.8203998431563377 0.8229409158229828 0.8255328983068466 0.8281761184334755 0.8308709561824799
          0.8336177468299866 0.8363999724388123 0.8392372280359268 0.8421492576599121 0.8451457321643829 0.8481776788830757
          0.8512545898556709 0.8544003069400787 0.8575995489954948 0.8608521595597267 0.8641577512025833 0.8675473406910896
          0.8709969595074654 0.8745179176330566 0.8780798316001892 0.8816773071885109 0.8853406980633736 0.8890560492873192
          0.8928046226501465 0.8965684846043587 0.9003727287054062 0.9042294844985008 0.9081197455525398 0.9120395928621292
          0.8409449830651283 0.9199034422636032 0.9238971322774887 0.9279283657670021 0.9319576472043991 0.9359790906310081
          0.7686825394630432 0.7783081158995628 0.7826038151979446 0.7690660357475281 0.7757096141576767 0.706540871411562
          0.6884975507855415 0.7153581269085407 0.7112104669213295 0.7203298509120941 0.7064882442355156 0.715461328625679
          0.7150308340787888 0.7164315581321716 0.7261640056967735 0.7360667884349823 0.7365108579397202 0.7369742169976234
          0.737492099404335 0.7380313724279404 0.7386456057429314 0.7392938509583473 0.7399798780679703 0.7407067492604256
          0.7415023148059845 0.7423115372657776 0.7431761845946312 0.7440135776996613 0.7566041350364685 0.7568294107913971
          0.7578938528895378 0.759072907269001 0.7602700814604759 0.761530227959156 0.7628661915659904 0.7641649395227432
          0.7655018344521523 0.7668879181146622 0.7683252692222595 0.7698058933019638 0.771363191306591 0.7729769796133041
          0.7746024429798126 0.7762710899114609 0.7779766321182251 0.7797131240367889 0.7814827561378479 0.7832590863108635
          0.7850706204771996 0.7869291082024574 0.7888475954532623 0.7908184379339218 0.7928258702158928 0.7948785722255707
          0.7969725430011749 0.7991115003824234 0.8012938126921654 0.8035200759768486 0.8057978302240372 0.808127649128437
          0.8105224072933197 0.8129608854651451 0.8154528066515923 0.8179978430271149 0.8205804377794266 0.8231662139296532
          0.8258046433329582 0.8284960389137268 0.831240713596344 0.8340391144156456 0.8368759602308273 0.8397722393274307
          0.8427541479468346 0.8458102494478226 0.8488994762301445 0.8520447984337807 0.8552592322230339 0.8585249185562134
          0.861845538020134 0.8652227073907852 0.8686919659376144 0.8722163662314415 0.8758155927062035 0.8794438689947128
          0.8831221982836723 0.8868652060627937 0.8906505033373833 0.8944783210754395 0.8983225226402283 0.9022130146622658
          0.9061509296298027 0.9101341441273689 0.914104700088501 0.842980369925499 0.9221424013376236 0.9262237697839737
          0.9303368106484413 0.9344228878617287 0.9385252669453621 0.9426566362380981 0.7687787190079689 0.7666110917925835
          0.7440082356333733 0.74603471159935 0.7304213270545006 0.6976226642727852 0.6885752491652966 0.7024051770567894
          0.7112744376063347 0.720500223338604 0.6973855942487717 0.7161725088953972 0.7388840690255165 0.716468445956707
          0.726268544793129 0.7362102568149567 0.7366763204336166 0.7371530383825302 0.73768749833107 0.7382677793502808
          0.7389089241623878 0.7395737543702126 0.7402802482247353 0.7410455271601677 0.7418704181909561 0.7427260130643845
          0.743539921939373 0.7441889122128487 0.7453780472278595 0.7574431225657463 0.7585583105683327 0.7597456872463226
          0.760986790060997 0.7623037472367287 0.7636687979102135 0.7649808302521706 0.7663762271404266 0.7678116485476494
          0.7693034261465073 0.7708384394645691 0.7724723145365715 0.774118609726429 0.7758041396737099 0.7775270715355873
          0.7792890444397926 0.78108761459589 0.7829003259539604 0.7847307845950127 0.7866149395704269 0.7885512709617615
          0.7905433848500252 0.7925761342048645 0.7946537211537361 0.7967803180217743 0.7989491298794746 0.8011640980839729
          0.8034234419465065 0.8057359829545021 0.808102436363697 0.8105339109897614 0.813013382256031 0.8155472576618195
          0.8181362450122833 0.8207659423351288 0.8233981505036354 0.8260846510529518 0.8288259506225586 0.8316224217414856
          0.8344743400812149 0.8373695909976959 0.8403278291225433 0.8433799371123314 0.8464979156851768 0.849646769464016
          0.8528630658984184 0.8561490103602409 0.8594836518168449 0.8628751188516617 0.8663346022367477 0.8698785975575447
          0.873483844101429 0.8771555423736572 0.880858764052391 0.8846214413642883 0.8884401321411133 0.8923027291893959
          0.896214947104454 0.9001426920294762 0.9041233882308006 0.9081440046429634 0.9121942594647408 0.9162474796175957
          0.8457353860139847 0.9244683310389519 0.9286379888653755 0.9328251853585243 0.9369797334074974 0.9411694034934044
          0.9453837275505066 0.9496186748147011 0.7726771160960197 0.7477296218276024 0.7426278442144394 0.7637158557772636
          0.7471290752291679 0.7022165954113007 0.6795898415148258 0.6937065981328487 0.7113394290208817 0.7210178375244141
          0.6965145245194435 0.7345183566212654 0.7299090176820755 0.7165712490677834 0.7263704016804695 0.7363752126693726
          0.7368528917431831 0.7373445928096771 0.7378881871700287 0.7385277599096298 0.7391797751188278 0.7398678436875343
          0.7406130433082581 0.7414067834615707 0.7422520965337753 0.7431185469031334 0.7559153810143471 0.7516796067357063
          0.7537539675831795 0.7580075263977051 0.7592357769608498 0.7604509443044662 0.7617431655526161 0.7631303742527962
          0.7644557282328606 0.7658539339900017 0.7672899290919304 0.7687898948788643 0.7703183069825172 0.7719549015164375
          0.7736194357275963 0.7753231897950172 0.777065746486187 0.7788514569401741 0.7806746140122414 0.7825288474559784
          0.7843814343214035 0.7862904518842697 0.7882436811923981 0.7902595326304436 0.7923180162906647 0.7944213822484016
          0.7965792566537857 0.7987802624702454 0.8010288998484612 0.8033222109079361 0.8056707307696342 0.8080750331282616
          0.8105425611138344 0.8130662888288498 0.8156436830759048 0.8182780519127846 0.8209566846489906 0.8236368745565414
          0.8263733685016632 0.8291664868593216 0.8320166319608688 0.834924153983593 0.8378828391432762 0.8409116715192795
          0.8440281897783279 0.847209982573986 0.8504207953810692 0.8537109270691872 0.8570711836218834 0.8604776784777641
          0.863944798707962 0.8674880117177963 0.8711096718907356 0.874799057841301 0.8785419762134552 0.8823273181915283
          0.8861777260899544 0.8900689706206322 0.8940182030200958 0.8980181813240051 0.9020373597741127 0.9061063379049301
          0.9102102443575859 0.91432985663414 0.918479397892952 0.8467761799693108 0.9268833994865417 0.9311440959572792
          0.9353899136185646 0.9396345466375351 0.9439128935337067 0.9482144266366959 0.9525347873568535 0.9568759649991989
          0.7548350617289543 0.7454180866479874 0.725091315805912 0.7568334266543388 0.7459901198744774 0.6855887472629547
          0.6799624375998974 0.7075196281075478 0.7116074115037918 0.7114272639155388 0.7294533625245094 0.7305441349744797
          0.7259059101343155 0.716650165617466 0.7264957651495934 0.736546628177166 0.7370469644665718 0.7375753596425056
          0.7381235063076019 0.7387883886694908 0.7394673973321915 0.7401838302612305 0.7409581691026688 0.7417772635817528
          0.742646299302578 0.7435434088110924 0.7445330172777176 0.7486077547073364 0.7558413743972778 0.7586786225438118
          0.7599425837397575 0.7612014189362526 0.7625594362616539 0.7639380395412445 0.7653203830122948 0.7667568027973175
          0.7682652473449707 0.7698035761713982 0.7714112550020218 0.7731107622385025 0.7748258784413338 0.7765904068946838
          0.7783961594104767 0.7802455276250839 0.7821319997310638 0.7840230986475945 0.7859534397721291 0.7879267334938049
          0.7899664491415024 0.7920511364936829 0.7941820994019508 0.7963676080107689 0.7986046001315117 0.8008878007531166
          0.8032161667943001 0.8056018054485321 0.8080452457070351 0.8105501011013985 0.8131202980875969 0.815742053091526
          0.8184234872460365 0.8211527839303017 0.8238829150795937 0.826671227812767 0.8295180723071098 0.8324239999055862
          0.8353908881545067 0.8384138941764832 0.8415160477161407 0.8446999937295914 0.8479448705911636 0.8512231037020683
          0.854590117931366 0.8580276668071747 0.8615089580416679 0.8650578036904335 0.868684858083725 0.8723876550793648
          0.8761646300554276 0.879982091486454 0.8838531076908112 0.8877750560641289 0.8917610719799995 0.8958004713058472
          0.8998917415738106 0.9040035158395767 0.908155158162117 0.9123560562729836 0.9165558889508247 0.9207984507083893
          0.8487206697463989 0.9293922036886215 0.9337412044405937 0.9380533024668694 0.9423912316560745 0.946760892868042
          0.9511527270078659 0.9555643796920776 0.9599908068776131 0.9644362106919289 0.747072659432888 0.7281540706753731
          0.731402650475502 0.753447875380516 0.7521247193217278 0.7038865759968758 0.6765269637107849 0.7151240184903145
          0.7093278244137764 0.7311394214630127 0.7510805130004883 0.7290417030453682 0.7164559289813042 0.7266315817832947
          0.726649172604084 0.7367474585771561 0.7372551411390305 0.7378054037690163 0.7383800894021988 0.7390605434775352
          0.7397779896855354 0.7405201867222786 0.7413218468427658 0.7421752139925957 0.7430655211210251 0.744013823568821
          0.7448402345180511 0.7461366504430771 0.7470155209302902 0.7593558728694916 0.7606818601489067 0.7620022743940353
          0.7634147927165031 0.764782227575779 0.7662263885140419 0.7677302435040474 0.7692842558026314 0.7708736211061478
          0.7725889757275581 0.7743145674467087 0.7760997787117958 0.7779279723763466 0.779803454875946 0.7817195728421211
          0.7836528792977333 0.7856034636497498 0.7876011282205582 0.789663776755333 0.7917750179767609 0.793934054672718
          0.7961477786302567 0.7984217405319214 0.8007405549287796 0.8031050860881805 0.805529035627842 0.8080129101872444
          0.8105571120977402 0.8131754025816917 0.815842479467392 0.8185727447271347 0.8213546574115753 0.8241364881396294
          0.8269786164164543 0.8298813626170158 0.8328452110290527 0.8358769044280052 0.8389729857444763 0.8421434089541435
          0.8453962579369545 0.8487062081694603 0.8520552664995193 0.8555022701621056 0.859020322561264 0.8625835999846458
          0.8662136122584343 0.8699278235435486 0.8737153112888336 0.8775748014450073 0.8814785480499268 0.885429359972477
          0.8894415497779846 0.8935201093554497 0.8976532816886902 0.9018421322107315 0.9060456454753876 0.9102785810828209
          0.9145743399858475 0.9188702329993248 0.9232092723250389 0.8508337363600731 0.9319997578859329 0.9364181607961655
          0.9408207014203072 0.9452551752328873 0.9497190564870834 0.9542039558291435 0.9587081968784332 0.9632267504930496
          0.967746876180172 0.972248911857605 0.7286516949534416 0.706903263926506 0.7219632565975189 0.7392407059669495
          0.7505592927336693 0.7310323715209961 0.67842136323452 0.7037829458713531 0.7236953228712082 0.7332434207201004
          0.7518858537077904 0.726613961160183 0.7166243344545364 0.7264402061700821 0.7268227785825729 0.7369826436042786
          0.7374881058931351 0.738059438765049 0.7386577874422073 0.7393318936228752 0.740105964243412 0.7408790364861488
          0.7417061105370522 0.7425850108265877 0.7435122728347778 0.7445266991853714 0.7456101477146149 0.7468093559145927
          0.7478682026267052 0.7600996643304825 0.7614667192101479 0.7628598362207413 0.764253556728363 0.7656884491443634
          0.7671872675418854 0.768752321600914 0.7703416794538498 0.7720385417342186 0.7737943083047867 0.7755913510918617
          0.7774446830153465 0.7793432474136353 0.7812901884317398 0.7832655310630798 0.7852412909269333 0.7872664630413055
          0.7893511801958084 0.79148930311203 0.7936768606305122 0.7959203273057938 0.7982275113463402 0.8005866706371307
          0.8029885143041611 0.8054521009325981 0.8079778403043747 0.8105661571025848 0.8132309466600418 0.8159459978342056
          0.8187259659171104 0.8215624541044235 0.8243981152772903 0.8272960856556892 0.8302569389343262 0.8332822918891907
          0.8363801836967468 0.8395543321967125 0.8427950739860535 0.8461183086037636 0.8494967594742775 0.8529190048575401
          0.8564493283629417 0.8600522801280022 0.8637010008096695 0.8674147054553032 0.871219664812088 0.8750956133008003
          0.8790392503142357 0.8830332383513451 0.8870598897337914 0.8911750614643097 0.8953499644994736 0.8995808362960815
          0.9038684144616127 0.9081534147262573 0.9125116690993309 0.9168822541832924 0.9212777316570282 0.925718680024147
          0.8530431166291237 0.9347102120518684 0.9391976818442345 0.9436977952718735 0.9482320472598076 0.9527932479977608
          0.957374207675457 0.9619736522436142 0.9665824323892593 0.9711609333753586 0.9757241755723953 0.9803016409277916
          0.7175520956516266 0.6939707547426224 0.7275358960032463 0.7304751127958298 0.7278560474514961 0.7030611038208008
          0.7006017938256264 0.6993889734148979 0.7211707904934883 0.7215264663100243 0.7420840859413147 0.7263346388936043
          0.716815248131752 0.7266168370842934 0.7269944325089455 0.7372527569532394 0.737720862030983 0.738323949277401
          0.738929994404316 0.7561455443501472 0.7572198286652565 0.7412493750452995 0.7421100810170174 0.7430088222026825
          0.7440090402960777 0.7450896203517914 0.7461833283305168 0.7473096325993538 0.7484647780656815 0.760972149670124
          0.7623112201690674 0.7637367770075798 0.765165276825428 0.7666533812880516 0.7682132422924042 0.7698130831122398
          0.7714883387088776 0.7732674106955528 0.7750684916973114 0.7769438028335571 0.778869517147541 0.7808443084359169
          0.7828552424907684 0.7848677262663841 0.786919042468071 0.7890264689922333 0.791193425655365 0.793410025537014
          0.795684739947319 0.7980238944292068 0.8004246205091476 0.802866205573082 0.8053707107901573 0.8079398572444916
          0.8105739057064056 0.8132859170436859 0.816052220761776 0.8188833296298981 0.8217765763401985 0.8246681019663811
          0.8276242837309837 0.8306455239653587 0.8337384015321732 0.8369065076112747 0.84015703946352 0.8434710577130318
          0.846867710351944 0.8503175526857376 0.8538162484765053 0.857433371245861 0.8611288890242577 0.8648627027869225
          0.8686636611819267 0.8725633174180984 0.8765354678034782 0.8805629685521126 0.8846324160695076 0.8887638375163078
          0.8929797634482384 0.8972548916935921 0.9015902578830719 0.9059612229466438 0.9103530272841454 0.914828285574913
          0.9192847460508347 0.9237841442227364 0.9283309131860733 0.8553682118654251 0.9375045150518417 0.9420889019966125
          0.9466907605528831 0.9513282179832458 0.9559897035360336 0.9606697708368301 0.9653602987527847 0.9700349569320679
          0.974695049226284 0.979324035346508 0.9840131103992462 0.9886956438422203 0.6804695203900337 0.7034391686320305
          0.7023101970553398 0.6965462863445282 0.7173021212220192 0.7137844935059547 0.6984417587518692 0.7284172996878624
          0.7115520909428596 0.730448380112648 0.7568308115005493 0.6978180110454559 0.7177586331963539 0.7268875390291214
          0.7271888479590416 0.7288221642374992 0.7379828318953514 0.7385960668325424 0.7554759010672569 0.7564537152647972
          0.7577724829316139 0.7416388690471649 0.7425311654806137 0.7435052543878555 0.7445517331361771 0.7456704825162888
          0.7520307675004005 0.7480129301548004 0.7604585140943527 0.7617248743772507 0.7631820961833 0.7646318674087524
          0.7661220133304596 0.7676875442266464 0.7692946717143059 0.7709527090191841 0.7727259621024132 0.7745410203933716
          0.7764265388250351 0.7783770635724068 0.7803774625062943 0.7824268639087677 0.7844849675893784 0.7865582630038261
          0.7886894270777702 0.7908872291445732 0.7931330651044846 0.7954395860433578 0.7978115752339363 0.8002542853355408
          0.8027377873659134 0.8052847236394882 0.8078988641500473 0.8105802685022354 0.813338115811348 0.8161607831716537
          0.819046325981617 0.8219973295927048 0.8249470219016075 0.8279636651277542 0.8310484364628792 0.8342109769582748
          0.8374589085578918 0.8407823890447617 0.8441727831959724 0.8476459234952927 0.8511704206466675 0.8547498658299446
          0.8584596961736679 0.8622487038373947 0.8660714998841286 0.8699658662080765 0.8739619106054306 0.8780240193009377
          0.8821376264095306 0.8862982988357544 0.8905405253171921 0.894859716296196 0.8992395624518394 0.9036681726574898
          0.9081496298313141 0.9126638695597649 0.9172235801815987 0.9217877835035324 0.9263966232538223 0.9310518354177475
          0.8577951043844223 0.9404141753911972 0.945098951458931 0.949807733297348 0.9545503929257393 0.9593135043978691
          0.9640873819589615 0.9688572362065315 0.9736209288239479 0.9783382266759872 0.9830921590328217 0.9878654032945633
          0.9926024898886681 0.9973034560680389 0.688419483602047 0.696124903857708 0.7042701318860054 0.6864940524101257
          0.7123369574546814 0.7243060320615768 0.695637471973896 0.7246671617031097 0.7082926034927368 0.7224859520792961
          0.7269714921712875 0.7132142931222916 0.6979551985859871 0.7173379361629486 0.7175377011299133 0.7279372438788414
          0.7384330481290817 0.7549784034490585 0.7558754161000252 0.7568943873047829 0.7411343082785606 0.7420609220862389
          0.743007980287075 0.7440214678645134 0.7451330870389938 0.746262677013874 0.7475210204720497 0.7598575577139854
          0.7611481249332428 0.7626036107540131 0.7640791088342667 0.765590526163578 0.767151415348053 0.7687684968113899
          0.7704237401485443 0.7721790820360184 0.774009682238102 0.7758990451693535 0.7778663411736488 0.7798939049243927