<VTKFile type="PolyData" version="1.0" byte_order="LittleEndian" header_type="UInt64">
  <PolyData>
    <Piece NumberOfPoints="10000" NumberOfVerts="0" NumberOfLines="0" NumberOfStrips="0" NumberOfPolys="9801">
      <PointData>
        <DataArray type="Float32" Name="zvalue" NumberOfComponents="1" format="ascii" RangeMin="0.2398145468905568" RangeMax="1.366252526640892">
          0.6620383188128471 0.66192227602005 0.6618202850222588 0.6617335379123688 0.6616634055972099 0.661610446870327
          0.6615762710571289 0.6615633890032768 0.6615738868713379 0.6616107672452927 0.6616764813661575 0.6617743819952011
          0.6619076207280159 0.6620837971568108 0.6623152270913124 0.6626136898994446 0.662998840212822 0.6634848192334175
          0.6640930622816086 0.6648389995098114 0.665748842060566 0.6668580695986748 0.6681869700551033 0.6697774305939674
          0.6716283783316612 0.6738229990005493 0.6764990612864494 0.6797925904393196 0.6838584169745445 0.6888430714607239
          0.6951108425855637 0.7028839662671089 0.7126117125153542 0.7252043411135674 0.7413335368037224 0.7606249153614044
          0.786922886967659 0.8223117217421532 0.8678293898701668 0.9257942661643028 0.9918772652745247 1.0593673661351204
          1.1168925911188126 1.1596688851714134 1.1861948370933533 1.1982843205332756 1.2012858614325523 1.1983197405934334
          1.1919826567173004 1.1835730820894241 1.1758809611201286 1.1677704080939293 1.1593805402517319 1.150967501103878
          1.1423730850219727 1.1333283558487892 1.1240788847208023 1.115197740495205 1.1072033792734146 1.1004455909132957
          1.0945947542786598 1.0895373821258545 1.0852727815508842 1.0815186649560928 1.0781014934182167 1.0748962685465813
          1.0718005895614624 1.068767711520195 1.0658238902688026 1.0629425942897797 1.0600496083498 1.0572268143296242
          1.0545596107840538 1.0521266534924507 1.04983402043581 1.047618106007576 1.0454915165901184 1.043470285832882
          1.0415452420711517 1.0397249087691307 1.0380472764372826 1.036428913474083 1.034869559109211 1.0333661884069443
          1.031916081905365 1.0305158346891403 1.0291429162025452 1.027796670794487 1.0264916196465492 1.0252292305231094
          1.0240086689591408 1.0228278040885925 1.0216567665338516 1.020516388118267 1.0194105878472328 1.0183161422610283
          1.0172514021396637 1.0162342488765717 1.015246607363224 1.0142897441983223 0.6621319651603699 0.6620038598775864
          0.6618896946310997 0.6617905348539352 0.6617078930139542 0.6616426035761833 0.6615954861044884 0.6615686491131783
          0.6615645885467529 0.661585845053196 0.6616352051496506 0.6617153435945511 0.661830298602581 0.6619834005832672
          0.6621868461370468 0.662451408803463 0.6627963110804558 0.6632349789142609 0.663792721927166 0.6644843071699142
          0.6653283536434174 0.6663611754775047 0.6676050201058388 0.669098325073719 0.6708684787154198 0.6729245632886887
          0.6754186078906059 0.6784939020872116 0.6823081374168396 0.6869702488183975 0.6928473711013794 0.7001592516899109
          0.7093854248523712 0.7211056798696518 0.7365414127707481 0.7549172714352608 0.779670387506485 0.8134997263550758
          0.857392780482769 0.914753146469593 0.9813772439956665 1.052096463739872 1.113262489438057 1.1605264842510223
          1.1896676048636436 1.2036736980080605 1.2070676684379578 1.2043681740760803 1.1977623999118805 1.1888810992240906
          1.180809147655964 1.1722642630338669 1.163441464304924 1.1545920222997665 1.1457354873418808 1.1363437920808792
          1.126857340335846 1.1177545860409737 1.109688512980938 1.1027930453419685 1.096931517124176 1.0918133407831192
          1.087488517165184 1.0836549177765846 1.0800951048731804 1.0767515152692795 1.07351004332304 1.0703462436795235
          1.0672799348831177 1.0642696991562843 1.061273768544197 1.0583356395363808 1.0556007325649261 1.0530859678983688
          1.0507103875279427 1.0484331026673317 1.0462510287761688 1.0442050769925117 1.0422333925962448 1.0404069125652313
          1.0386843234300613 1.0370262041687965 1.0354298502206802 1.0338920131325722 1.0324093326926231 1.0309788584709167
          1.0295700207352638 1.0282031148672104 1.0268729850649834 1.0255866274237633 1.0243443995714188 1.0231420248746872
          1.0219457149505615 1.0207865089178085 1.0196492373943329 1.0185303315520287 1.0174667164683342 1.0164341628551483
          1.0154362991452217 1.0144730880856514 0.662237137556076 0.6620963662862778 0.6619693636894226 0.6618573740124702
          0.6617615222930908 0.6616833880543709 0.6616235002875328 0.6615827828645706 0.6615642458200455 0.6615699902176857
          0.6616030111908913 0.6616659387946129 0.6617618724703789 0.6618951931595802 0.6620717644691467 0.6623053997755051
          0.6626099571585655 0.6630064845085144 0.6635107025504112 0.6641507223248482 0.6649365499615669 0.665892668068409
          0.6670584827661514 0.6684520840644836 0.6701271012425423 0.6720873713493347 0.6744065433740616 0.6772744506597519
          0.6808291897177696 0.6852084323763847 0.6906882748007774 0.6975689381361008 0.7062131986021996 0.71722012758255
          0.7317139580845833 0.7497099563479424 0.772798515856266 0.8047062903642654 0.8471969589591026 0.9032132029533386
          0.9701103791594505 1.0434119403362274 1.108621969819069 1.1606636494398117 1.1928851455450058 1.2089316844940186
          1.2129202112555504 1.2105047926306725 1.203567661345005 1.1942763701081276 1.1857648864388466 1.1767863556742668
          1.1675260812044144 1.1582589372992516 1.1490961983799934 1.139361672103405 1.1296430230140686 1.1203313395380974
          1.112182267010212 1.1051714792847633 1.099289909005165 1.0941429361701012 1.0897152125835419 1.0857907608151436
          1.0820735096931458 1.078578159213066 1.0751948729157448 1.0718983486294746 1.068708375096321 1.0655678883194923
          1.0624691992998123 1.0594168230891228 1.0566172450780869 1.054008200764656 1.0515615791082382 1.0492232218384743
          1.0470055937767029 1.0449143126606941 1.0429034605622292 1.0410645678639412 1.0392985418438911 1.0376014187932014
          1.0359684750437737 1.0343964323401451 1.032881535589695 1.0314172953367233 1.0299777686595917 1.0285902470350266
          1.0272354781627655 1.0259258970618248 1.024661846458912 1.02343337982893 1.0222171321511269 1.0210345536470413
          1.0198600962758064 1.0187451988458633 1.0176654309034348 1.016623504459858 1.0156176835298538 1.0146414041519165
          0.6623540222644806 0.6622007265686989 0.6620604321360588 0.6619348973035812 0.6618255451321602 0.6617336645722389
          0.6616603434085846 0.6616062596440315 0.6615729853510857 0.6615634337067604 0.6615800559520721 0.6616259515285492
          0.6617036834359169 0.6618169099092484 0.6619707196950912 0.6621747314929962 0.6624432057142258 0.6627969220280647
          0.6632508412003517 0.6638346016407013 0.664565347135067 0.665456160902977 0.6665437817573547 0.6678489446640015
          0.6694146171212196 0.671288289129734 0.6734665185213089 0.6761293336749077 0.6794390082359314 0.6835424676537514
          0.688628576695919 0.6951007470488548 0.7031840160489082 0.7135436832904816 0.7271044179797173 0.74464350938797
          0.7661283388733864 0.7962035834789276 0.8373363614082336 0.8916502892971039 0.9583354815840721 1.033710554242134
          1.103603057563305 1.1595085710287094 1.1958409622311592 1.2140934839844704 1.2190142199397087 1.216667115688324
          1.2094314992427826 1.1998261585831642 1.1907669305801392 1.1813484206795692 1.1716336533427238 1.1619460582733154
          1.1524081453680992 1.1423879563808441 1.1323852986097336 1.122929535806179 1.1146917194128036 1.1075826585292816
          1.1016822308301926 1.0964912995696068 1.091950997710228 1.0879199728369713 1.084034763276577 1.0803803578019142
          1.076852135360241 1.073419526219368 1.0701057240366936 1.06683349609375 1.0636165961623192 1.060471199452877
          1.0576050132513046 1.0548985004425049 1.052384853363037 1.0499861538410187 1.0477398782968521 1.0455981120467186
          1.0435904189944267 1.041697233915329 1.0398893430829048 1.0381533950567245 1.0364846214652061 1.0348787233233452
          1.0333322808146477 1.0318315923213959 1.0303712710738182 1.0289576426148415 1.0275782346725464 1.0262462198734283
          1.024960733950138 1.0237060710787773 1.0224699229002 1.0212443321943283 1.020071841776371 1.0189420953392982
          1.0178536474704742 1.0168029218912125 1.015783354640007 1.0147935524582863 0.6624805852770805 0.6623172014951706
          0.6621638163924217 0.6620242893695831 0.6619006395339966 0.6617942973971367 0.661706879734993 0.6616388484835625
          0.6615912988781929 0.6615663468837738 0.6615667268633842 0.661595493555069 0.6616552770137787 0.6617490947246552
          0.661881186068058 0.6620584353804588 0.6622942760586739 0.662604883313179 0.6630130186676979 0.6635379567742348
          0.6642139181494713 0.665047861635685 0.6660584583878517 0.6672839447855949 0.6687453240156174 0.6705075725913048
          0.6725906878709793 0.6750498116016388 0.6781233698129654 0.6819696426391602 0.6867142394185066 0.69275763630867
          0.7003354430198669 0.710083857178688 0.7226821854710579 0.7394461631774902 0.7597805559635162 0.7879164293408394
          0.8272401839494705 0.8795552477240562 0.9462992772459984 1.0233593955636024 1.097764641046524 1.1578059792518616
          1.198711909353733 1.219069965183735 1.2251051291823387 1.222795844078064 1.2153892368078232 1.2054374366998672
          1.1958150640130043 1.1859893053770065 1.1757632195949554 1.1656332165002823 1.1556638181209564 1.1453988626599312
          1.135126642882824 1.125517837703228 1.11722332239151 1.1100188791751862 1.1040835157036781 1.0988517925143242
          1.0942110568284988 1.0900258794426918 1.085973784327507 1.0821527615189552 1.078476034104824 1.0749074816703796
          1.0714692249894142 1.0680653303861618 1.0647256597876549 1.0614951401948929 1.058565765619278 1.055759347975254
          1.0531781539320946 1.0507373362779617 1.048446424305439 1.04625403881073 1.044247031211853 1.0423074439167976
          1.0404549688100815 1.0386808812618256 1.0369762256741524 1.0353373140096664 1.0337596237659454 1.0322232469916344
          1.0307428538799286 1.0293032675981522 1.027900218963623 1.026546061038971 1.0252390652894974 1.0239585787057877
          1.0226831436157227 1.0214494615793228 1.020266629755497 1.0191288366913795 1.0180302560329437 1.016965091228485
          1.0159323140978813 1.0149236917495728 0.6626132726669312 0.662442721426487 0.6622792482376099 0.662126325070858
          0.6619880050420761 0.661866657435894 0.6617639064788818 0.6616814061999321 0.6616191118955612 0.6615790501236916
          0.661563329398632 0.6615747958421707 0.6616167426109314 0.6616917252540588 0.6618030294775963 0.6619560495018959
          0.6621614247560501 0.6624334752559662 0.6627959311008453 0.6632655039429665 0.6638795509934425 0.6646570488810539
          0.6656033098697662 0.6667520850896835 0.6681226491928101 0.6697639301419258 0.6717434972524643 0.67406365275383
          0.676900677382946 0.6804802715778351 0.6849102675914764 0.6905128136277199 0.697657510638237 0.7066795900464058
          0.718482717871666 0.7342255562543869 0.7538802921772003 0.7800166755914688 0.8172701522707939 0.8675330653786659
          0.9336796775460243 1.0115943029522896 1.0909221321344376 1.1554196029901505 1.2010710313916206 1.2237388268113136
          1.2311337068676949 1.2289975881576538 1.221503309905529 1.211085319519043 1.2008963078260422 1.1906573548913002
          1.1799062564969063 1.1693227663636208 1.1588978692889214 1.148377813398838 1.137840136885643 1.1281335428357124
          1.1197486594319344 1.1125405505299568 1.1064961701631546 1.1012171879410744 1.0964620485901833 1.0921017080545425
          1.087871253490448 1.0838897079229355 1.0800626948475838 1.0763573497533798 1.072795107960701 1.0692601576447487
          1.0657981857657433 1.0625040605664253 1.05949417501688 1.0565940886735916 1.0539400428533554 1.0514685362577438
          1.0491236820816994 1.0469117760658264 1.0448736622929573 1.042890228331089 1.0409939140081406 1.0391823649406433
          1.0374426543712616 1.0357704982161522 1.0341623649001122 1.032591700553894 1.0310914441943169 1.0296270921826363
          1.0282004624605179 1.0268245488405228 1.0254968404769897 1.0241795629262924 1.0228810980916023 1.0216413885354996
          1.0204511433839798 1.019301749765873 1.0181884467601776 1.0171095803380013 1.0160627588629723 1.0150272995233536
          0.662747360765934 0.6625734493136406 0.6624034717679024 0.6622402518987656 0.6620883867144585 0.6619517058134079
          0.6618331223726273 0.6617346927523613 0.6616572439670563 0.6616016924381256 0.6615700200200081 0.661564365029335
          0.661588191986084 0.6616445183753967 0.6617358699440956 0.6618661731481552 0.6620435565710068 0.6622815057635307
          0.6625976413488388 0.663017712533474 0.6635659039020538 0.6642838269472122 0.6651746854186058 0.666249580681324
          0.6675394773483276 0.6690710932016373 0.6709243506193161 0.6731404140591621 0.6757653802633286 0.6790669783949852
          0.683212623000145 0.6884015277028084 0.6950957700610161 0.7035033479332924 0.7145406305789948 0.729188971221447
          0.7483575418591499 0.7724864184856415 0.8073529154062271 0.8558364585042 0.9206519201397896 0.9988098591566086
          1.082469031214714 1.1520072296261787 1.2023403868079185 1.2281921654939651 1.237089991569519 1.2352410554885864
          1.2277009636163712 1.2168090865015984 1.2059869021177292 1.1953142657876015 1.184069499373436 1.172992505133152
          1.1621165797114372 1.1513404175639153 1.1405198127031326 1.130707047879696 1.122300460934639 1.1150945648550987
          1.108917973935604 1.1035680621862411 1.0986949056386948 1.0941477119922638 1.0897320285439491 1.0855853632092476
          1.0816075056791306 1.077765017747879 1.0740807056427002 1.0704144164919853 1.0668313801288605 1.0634797662496567
          1.0603711158037186 1.057393565773964 1.0546834841370583 1.0521675497293472 1.0497655123472214 1.0475552380084991
          1.045467622578144 1.0434441044926643 1.0415044128894806 1.0396557003259659 1.0378817990422249 1.0361774265766144
          1.0345391631126404 1.0329414904117584 1.031415618956089 1.0299272760748863 1.02847820520401 1.027080774307251
          1.0257313400506973 1.0243688598275185 1.0230695456266403 1.0218231678009033 1.020619660615921 1.0194551795721054
          1.0183277279138565 1.017235480248928 1.0161618888378143 1.0151128321886063 0.6628792360424995 0.6627051085233688
          0.6625318080186844 0.6623627841472626 0.662200354039669 0.6620500236749649 0.6619154810905457 0.6618001684546471
          0.6617065444588661 0.6616348624229431 0.6615870669484138 0.6615645736455917 0.6615701913833618 0.6616075485944748
          0.6616793572902679 0.6617884933948517 0.6619403436779976 0.6621469929814339 0.662422239780426 0.662792332470417
          0.6632785126566887 0.6639283820986748 0.66476159542799 0.6657731160521507 0.6669910326600075 0.6684296205639839
          0.670152023434639 0.6722379699349403 0.6747257634997368 0.6777517721056938 0.6816195771098137 0.6864430978894234
          0.6926407217979431 0.7005353718996048 0.7107752859592438 0.7243987396359444 0.7426535338163376 0.7654266878962517
          0.797731414437294 0.8442001417279243 0.9073043614625931 0.9852404296398163 1.072393275797367 1.1477565318346024
          1.203173317015171 1.2326660230755806 1.243026427924633 1.241702914237976 1.233760416507721 1.2225950583815575
          1.2110861241817474 1.2000024020671844 1.18821931630373 1.1766471043229103 1.1653227508068085 1.1542181000113487
          1.1431800574064255 1.1332714408636093 1.1249016672372818 1.1176677197217941 1.1113638803362846 1.10593231767416
          1.1009060963988304 1.096155159175396 1.091551199555397 1.087235040962696 1.0831052362918854 1.0791271775960922
          1.0753117576241493 1.0715254098176956 1.0678242668509483 1.0644160956144333 1.0612078756093979 1.0581554919481277
          1.0554056018590927 1.0528282150626183 1.0503850728273392 1.0481663048267365 1.046028882265091 1.043967343866825
          1.0419877395033836 1.0400998890399933 1.038291983306408 1.0365562438964844 1.0348858684301376 1.0332659110426903
          1.0317144840955734 1.030203029513359 1.0287313014268875 1.0273134484887123 1.0259163603186607 1.0245528519153595
          1.0232468321919441 1.0219863876700401 1.0207680016756058 1.019588865339756 1.0184473916888237 1.0173342749476433
          1.0162404254078865 1.0151801779866219 0.6630089282989502 0.6628352105617523 0.6626608744263649 0.6624884381890297
          0.6623206734657288 0.6621596664190292 0.6620112881064415 0.6618794724345207 0.6617680788040161 0.6616794988512993
          0.6616147607564926 0.6615754812955856 0.6615631356835365 0.6615813672542572 0.6616334468126297 0.6617218405008316
          0.661850817501545 0.6620271727442741 0.6622673720121384 0.662587970495224 0.6630194708704948 0.6635929569602013
          0.6643614992499352 0.6653216108679771 0.6664725095033646 0.667831115424633 0.6694349721074104 0.6713806167244911
          0.6737367063760757 0.6765487566590309 0.6801095828413963 0.6845973804593086 0.6903248503804207 0.6977452114224434
          0.707191213965416 0.7198931500315666 0.7369886115193367 0.7587964981794357 0.7884973287582397 0.8325979709625244
          0.8933190181851387 0.9714933782815933 1.0608754679560661 1.1424546912312508 1.2031427770853043 1.2368472591042519
          1.2492175921797752 1.2481534779071808 1.239866465330124 1.2284301295876503 1.2161463871598244 1.2046932205557823
          1.1923462003469467 1.1802731826901436 1.168492168188095 1.1569827646017075 1.1458311676979065 1.1358566731214523
          1.127459891140461 1.1202469989657402 1.113810196518898 1.1082663238048553 1.1030611991882324 1.0981024876236916
          1.0933182910084724 1.0888323336839676 1.0845515355467796 1.0804395973682404 1.0764830633997917 1.072567030787468
          1.0687787756323814 1.0653097182512283 1.062002882361412 1.0588907599449158 1.0560877099633217 1.0534507483243942
          1.0510084852576256 1.0487427487969398 1.0465568453073502 1.0444572642445564 1.042439728975296 1.0405127480626106
          1.038671836256981 1.0369053035974503 1.0352017357945442 1.033562757074833 1.0319863334298134 1.0304525047540665
          1.0289598107337952 1.027503676712513 1.0260948538780212 1.024725005030632 1.023404099047184 1.0221277996897697
          1.0208941027522087 1.0197009146213531 1.018546111881733 1.0174043625593185 1.0162992402911186 1.015228383243084
          0.6631373465061188 0.6629635021090508 0.6627892255783081 0.6626148894429207 0.6624434217810631 0.6622769311070442
          0.6621181443333626 0.661972351372242 0.6618438735604286 0.6617369875311852 0.6616542786359787 0.6615974083542824
          0.661567397415638 0.6615664288401604 0.6615985706448555 0.6616663783788681 0.6617732346057892 0.6619241014122963
          0.6621289700269699 0.6624093353748322 0.6627858057618141 0.6632886007428169 0.6639787629246712 0.6648800373077393
          0.6659735143184662 0.6672705709934235 0.6687762066721916 0.6705829054117203 0.6727729439735413 0.6754427701234818
          0.6786948442459106 0.6828697696328163 0.6881588026881218 0.6950562968850136 0.7038629502058029 0.7156215980648994
          0.7315003275871277 0.7525322511792183 0.7799094021320343 0.8210624679923058 0.8793280050158501 0.9568135142326355
          1.0480196252465248 1.1358789056539536 1.2021404802799225 1.2405783385038376 1.2552503794431686 1.254575863480568
          1.2460031434893608 1.2342233285307884 1.2212608456611633 1.2092889547348022 1.1964271515607834 1.183861255645752
          1.1715866476297379 1.159708097577095 1.1484707072377205 1.1384729146957397 1.1300178170204163 1.1227742210030556
          1.1162360087037086 1.1105598360300064 1.1051539555191994 1.0999939441680908 1.0950274094939232 1.0903709009289742
          1.0859418287873268 1.081697292625904 1.0776016041636467 1.0735564678907394 1.069685272872448 1.0661561116576195
          1.0627534165978432 1.059604860842228 1.0567262917757034 1.0540340393781662 1.0515939146280289 1.0492797866463661
          1.0470483005046844 1.0449125617742538 1.0428578183054924 1.0408922135829926 1.039019376039505 1.0372229516506195
          1.0354943871498108 1.0338299050927162 1.032229706645012 1.0306748822331429 1.0291541665792465 1.027676783502102
          1.0262605845928192 1.0248753353953362 1.0235377848148346 1.0222461596131325 1.0209980681538582 1.0197914317250252
          1.0186071693897247 1.0174536556005478 1.016337238252163 1.0152560770511627 0.6632647216320038 0.6630914062261581
          0.6629166230559349 0.6627413555979729 0.6625672876834869 0.6623969078063965 0.662232019007206 0.6620760858058929
          0.661933459341526 0.6618089154362679 0.6617070212960243 0.661631353199482 0.6615830510854721 0.6615632697939873
          0.6615751832723618 0.6616222485899925 0.6617073565721512 0.6618344932794571 0.6620100364089012 0.6622503995895386
          0.6625760793685913 0.6630178019404411 0.663617342710495 0.6644467636942863 0.6654925644397736 0.6667372658848763
          0.6681689098477364 0.6698461398482323 0.6718761697411537 0.6743753850460052 0.6774183586239815 0.6812431588768959
          0.6861564517021179 0.6925050914287567 0.7007484659552574 0.7115427032113075 0.7262925505638123 0.7463126480579376
          0.7719484716653824 0.8097018375992775 0.8656875193119049 0.9417292475700378 1.033992238342762 1.1280505657196045
          1.2002141922712326 1.2440812215209007 1.2608491033315659 1.2610094025731087 1.252199336886406 1.2399195432662964
          1.2263666987419128 1.2138346806168556 1.2004953473806381 1.1873627230525017 1.174630418419838 1.1623816341161728
          1.1511206030845642 1.141093023121357 1.1326021030545235 1.125251792371273 1.118655376136303 1.1128081679344177
          1.1071863994002342 1.101812943816185 1.0966709926724434 1.0918462127447128 1.0872706770896912 1.0828970521688461
          1.0786636471748352 1.074492983520031 1.0705533549189568 1.0669358521699905 1.063472755253315 1.0602693408727646
          1.0573212280869484 1.0546163320541382 1.0521389842033386 1.049774780869484 1.0475019067525864 1.0453307926654816
          1.0432398170232773 1.0412392690777779 1.039332963526249 1.0375076979398727 1.035756178200245 1.0340669080615044
          1.0324432253837585 1.0308686420321465 1.0293138325214386 1.0278418734669685 1.0264025032520294 1.0250000432133675
          1.0236469358205795 1.0223402455449104 1.0210783034563065 1.0198493599891663 1.0186454951763153 1.0174807459115982
          1.016354463994503 1.015262521803379 0.6633927971124649 0.6632196381688118 0.6630441844463348 0.6628682315349579
          0.6626920700073242 0.6625182330608368 0.6623491868376732 0.6621861457824707 0.6620334833860397 0.6618946194648743
          0.6617743670940399 0.661678783595562 0.6616109758615494 0.6615721359848976 0.6615638211369514 0.6615898236632347
          0.6616532206535339 0.6617574170231819 0.661906860768795 0.6621106863021851 0.6623933240771294 0.6627763882279396
          0.6632948145270348 0.6640281677246094 0.6650151088833809 0.6662127003073692 0.6676024869084358 0.6691780313849449
          0.6710582002997398 0.673355408012867 0.6762236282229424 0.679742194712162 0.6842631101608276 0.6901199892163277
          0.6978240385651588 0.707762785255909 0.7214169353246689 0.740161769092083 0.7644928395748138 0.7989355847239494
          0.852108858525753 0.9259750247001648 1.0187331587076187 1.1181179732084274 1.1971495151519775 1.2471215426921844
          1.266298033297062 1.2675335854291916 1.2584223970770836 1.2455499842762947 1.2314396798610687 1.218276560306549
          1.2045407816767693 1.1907584071159363 1.1776043772697449 1.165013387799263 1.1537429168820381 1.1437110230326653
          1.1351775974035263 1.127681851387024 1.1210328787565231 1.114958293735981 1.1091343685984612 1.1035428047180176
          1.0982409864664078 1.0932509303092957 1.0885330066084862 1.0840329080820084 1.0796644762158394 1.0753734484314919
          1.0713757127523422 1.067661575973034 1.0641594007611275 1.0608855038881302 1.0578694939613342 1.055166944861412
          1.052640937268734 1.0502278506755829 1.0479145050048828 1.0457064136862755 1.0435833856463432 1.0415505096316338
          1.039610542356968 1.0377574563026428 1.0359846577048302 1.0342718213796616 1.0326257273554802 1.0310161113739014
          1.029469482600689 1.0279807597398758 1.0265166461467743 1.0250980705022812 1.0237300172448158 1.0224095359444618
          1.0211319848895073 1.0198754742741585 1.0186601802706718 1.0174852833151817 1.0163494795560837 1.015246994793415
          0.6635221689939499 0.6633481383323669 0.6631727740168571 0.6629955843091011 0.6628180667757988 0.6626414284110069
          0.6624680683016777 0.6623000577092171 0.6621395200490952 0.6619905158877373 0.6618560999631882 0.6617409065365791
          0.6616526171565056 0.6615934893488884 0.6615651249885559 0.6615697890520096 0.6616112068295479 0.6616925075650215
          0.6618175208568573 0.6619919389486313 0.6622310876846313 0.6625610440969467 0.6630123555660248 0.6636372581124306
          0.6645377203822136 0.665691427886486 0.6670538038015366 0.6685656979680061 0.6703085526823997 0.6724283695220947
          0.6750618740916252 0.6783746778964996 0.6825010254979134 0.6879000589251518 0.6949974223971367 0.7042447775602341
          0.7167738303542137 0.7341384068131447 0.7574661076068878 0.7889858558773994 0.8383662700653076 0.9096100479364395
          1.0027584433555603 1.106145702302456 1.1931054219603539 1.249473661184311 1.271571859717369 1.2741138488054276
          1.2646388933062553 1.2511244863271713 1.2363688126206398 1.2225781977176666 1.20851668715477 1.1940944492816925
          1.1805187985301018 1.1676355749368668 1.1563406363129616 1.1463181599974632 1.1377303749322891 1.1300640180706978
          1.1233223602175713 1.1169869303703308 1.1109695136547089 1.105189174413681 1.099730521440506 1.0945796519517899
          1.089723028242588 1.0851005390286446 1.0805976912379265 1.0761910676956177 1.072139397263527 1.0683394595980644
          1.0647905692458153 1.0614494979381561 1.058383733034134 1.055669866502285 1.0530967861413956 1.0506362542510033
          1.0482843592762947 1.0460396334528923 1.0438869521021843 1.0418228283524513 1.0398503094911575 1.0379777625203133
          1.0361788421869278 1.0344426706433296 1.0327649116516113 1.0311597138643265 1.0295964032411575 1.0280899181962013
          1.026602327823639 1.0251682922244072 1.023785911500454 1.022452361881733 1.021145612001419 1.0198767110705376
          1.0186510235071182 1.017466977238655 1.0163204669952393 1.0152095779776573 0.6636526882648468 0.6634779199957848
          0.6633019968867302 0.6631241515278816 0.6629455238580704 0.6627666056156158 0.6625896990299225 0.6624167859554291
          0.6622498482465744 0.6620923578739166 0.6619474291801453 0.6618175506591797 0.6617092415690422 0.661628782749176
          0.6615794450044632 0.6615627780556679 0.6615818068385124 0.6616399958729744 0.6617409810423851 0.6618888974189758
          0.6620916426181793 0.6623743399977684 0.6627637892961502 0.6632963493466377 0.664073996245861 0.6651632264256477
          0.6664939746260643 0.6679893732070923 0.6696391627192497 0.6715943515300751 0.6739968508481979 0.6770548298954964
          0.680886872112751 0.6858322247862816 0.6923503503203392 0.700969859957695 0.7124029099941254 0.7284400463104248
          0.7505191043019295 0.7798845991492271 0.8248457461595535 0.8932352885603905 0.9853893294930458 1.0927389413118362
          1.1875875368714333 1.250898391008377 1.2765459790825844 1.2805078476667404 1.2711517289280891 1.2567107528448105
          1.241197131574154 1.226804792881012 1.2123548164963722 1.197331316769123 1.1833804845809937 1.1702058613300323
          1.1588671132922173 1.1489024981856346 1.1402428299188614 1.1324594542384148 1.1255337223410606 1.1189229488372803
          1.1126649901270866 1.1067309007048607 1.101112738251686 1.0958257243037224 1.0908357203006744 1.0860948786139488
          1.0814388990402222 1.0769414976239204 1.0728339478373528 1.0689775198698044 1.065364807844162 1.0619582757353783
          1.058884434401989 1.0561220720410347 1.0535032153129578 1.0509971007704735 1.048608385026455 1.0463290810585022
          1.0441476851701736 1.0420536994934082 1.0400515347719193 1.0381598696112633 1.03633551299572 1.034576952457428
          1.032891370356083 1.0312727689743042 1.0296922400593758 1.0281609818339348 1.0266578793525696 1.0252096578478813
          1.0238138809800148 1.022456668317318 1.021131232380867 1.0198519304394722 1.018616959452629 1.0174237936735153
          1.01625607162714 1.0151116400957108 0.6637838408350945 0.6636088639497757 0.6634320840239525 0.6632542535662651
          0.6630740165710449 0.6628935188055038 0.6627138927578926 0.6625369414687157 0.6623646542429924 0.662198930978775
          0.6620448008179665 0.661904402077198 0.6617801040410995 0.6616793423891068 0.6616078838706017 0.6615692675113678
          0.6615656688809395 0.6616005375981331 0.6616772413253784 0.6617997139692307 0.6619731187820435 0.6622112393379211
          0.6625422462821007 0.6630025953054428 0.6636516377329826 0.6646286323666573 0.665917381644249 0.6674110591411591
          0.6690332442522049 0.670848086476326 0.6730524003505707 0.6758059412240982 0.6793828755617142 0.6839081719517708
          0.6898928210139275 0.6978589072823524 0.7083561792969704 0.7231482490897179 0.743795745074749 0.77132947742939
          0.8122121691703796 0.8773330971598625 0.9673604071140289 1.077205166220665 1.1800854355096817 1.2511123716831207