<VTKFile type="PolyData" version="1.0" byte_order="LittleEndian" header_type="UInt64">
  <PolyData>
    <Piece NumberOfPoints="10000" NumberOfVerts="0" NumberOfLines="0" NumberOfStrips="0" NumberOfPolys="9801">
      <PointData>
        <DataArray type="Float32" Name="zvalue" NumberOfComponents="1" format="ascii" RangeMin="0.5695500113070011" RangeMax="1.3077856004238129">
          0.7106182649731636 0.7228865101933479 0.7378758490085602 0.756659135222435 0.7803477123379707 0.8099775612354279
          0.8455058485269547 0.8871878683567047 0.9323206543922424 0.9781617447733879 1.019896425306797 1.0558378398418427
          1.0806077867746353 1.1010579243302345 1.116540014743805 1.1304481104016304 1.1440591514110565 1.1577982753515244
          1.173278070986271 1.1894275322556496 1.206531211733818 1.2222408205270767 1.2361640855669975 1.2473941147327423
          1.253814697265625 1.2572843506932259 1.2587620541453362 1.256686806678772 1.251572884619236 1.2445811852812767
          1.2346334904432297 1.222439430654049 1.209458127617836 1.1953182816505432 1.180211864411831 1.1640263721346855
          1.1471524238586426 1.1307851523160934 1.1151925772428513 1.101063311100006 1.0877729281783104 1.0747062489390373
          1.0617091953754425 1.0497054010629654 1.03945442289114 1.0312961488962173 1.0248993262648582 1.0197069570422173
          1.015352986752987 1.0119797959923744 1.0097975879907608 1.0085370391607285 1.007625587284565 1.0065995752811432
          1.0053668320178986 1.0039500892162323 1.0024036765098572 1.000801682472229 0.9991805031895638 0.9974889829754829
          0.9958298429846764 0.9942145869135857 0.9926391690969467 0.9910882487893105 0.9895639270544052 0.988048329949379
          0.9865707531571388 0.9851291626691818 0.9837162420153618 0.9823250621557236 0.9809475168585777 0.979573480784893
          0.9782013073563576 0.9768202975392342 0.9754402190446854 0.9740405604243279 0.9726270511746407 0.9711941182613373
          0.9697391986846924 0.9682585671544075 0.9667560830712318 0.9652201980352402 0.9636658281087875 0.962096206843853
          0.9605126902461052 0.958916924893856 0.9573104083538055 0.9557076618075371 0.9541072398424149 0.9525009244680405
          0.9508964046835899 0.9492919221520424 0.9476859271526337 0.9460795223712921 0.944478839635849 0.9428794458508492
          0.9412821754813194 0.9396909698843956 0.9381065890192986 0.9365342110395432 0.701916053891182 0.7125288993120193
          0.7253168076276779 0.7411261349916458 0.7611620277166367 0.7862850800156593 0.8179097101092339 0.8556604236364365
          0.8988583460450172 0.9457120150327682 0.9911302179098129 1.0323463752865791 1.0650729089975357 1.0884747430682182
          1.1068328320980072 1.1212957054376602 1.1354543641209602 1.1483603790402412 1.1632039994001389 1.1786461919546127
          1.1959307715296745 1.2126865237951279 1.2277629598975182 1.241097129881382 1.2501572221517563 1.2550176084041595
          1.2579463571310043 1.2577164620161057 1.2539505362510681 1.247910387814045 1.2391619309782982 1.2274697497487068
          1.2147757187485695 1.2008957713842392 1.1858730539679527 1.1697470247745514 1.1524734273552895 1.1356647238135338
          1.119372934103012 1.1044026613235474 1.0904794558882713 1.0769069865345955 1.0633427426218987 1.0507402122020721
          1.0400277823209763 1.0315485075116158 1.0249053835868835 1.0195332244038582 1.015140861272812 1.0119504481554031
          1.0100261345505714 1.0089461505413055 1.0080367848277092 1.006951317191124 1.0056595727801323 1.0042394995689392
          1.00266931951046 1.0010317265987396 0.9993450194597244 0.9976289868354797 0.9959528148174286 0.9943217113614082
          0.992728516459465 0.9911684617400169 0.9896316602826118 0.9880990087985992 0.9866045713424683 0.9851449057459831
          0.9837111383676529 0.9822919890284538 0.980884239077568 0.979481928050518 0.9780723676085472 0.9766649678349495
          0.9752395451068878 0.9737918525934219 0.9723280295729637 0.970843531191349 0.9693342819809914 0.9677891135215759
          0.9662168025970459 0.964625395834446 0.9630171656608582 0.9613939076662064 0.9597571939229965 0.9581089094281197
          0.9564507529139519 0.9547937735915184 0.9531443640589714 0.9514896348118782 0.9498318061232567 0.948181763291359
          0.9465312212705612 0.9448723122477531 0.9432111904025078 0.9415706843137741 0.9399370700120926 0.9383146017789841
          0.936699628829956 0.9350829869508743 0.6943478956818581 0.7034215703606606 0.7145445793867111 0.7279010117053986
          0.7445961311459541 0.7660028710961342 0.7927210852503777 0.8262260928750038 0.8665048405528069 0.9112042412161827
          0.9594473615288734 1.004387766122818 1.0445782393217087 1.073654219508171 1.0957641154527664 1.1123706921935081
          1.126112975180149 1.1399815827608109 1.1531225517392159 1.1685094833374023 1.1846380904316902 1.202030897140503
          1.218299500644207 1.2329587489366531 1.2449255213141441 1.2520352900028229 1.2559403032064438 1.2577108442783356
          1.2557353973388672 1.2506263852119446 1.2432142049074173 1.2325659841299057 1.2199527695775032 1.2064508497714996
          1.1916079819202423 1.1755538582801819 1.1580611392855644 1.1408208534121513 1.1238390803337097 1.1079808101058006
          1.0933573320508003 1.0792351812124252 1.0650996789336205 1.0518845245242119 1.0406595394015312 1.0318505242466927
          1.0249333307147026 1.0193760469555855 1.0149846225976944 1.0120269730687141 1.0103809684515 1.0094201937317848
          1.008477307856083 1.007323443889618 1.0059772208333015 1.0045165941119194 1.0029528439044952 1.0012832805514336
          0.9995286986231804 0.9977877512574196 0.9960940852761269 0.9944446980953217 0.9928312078118324 0.9912503585219383
          0.9896959885954857 0.9881582483649254 0.9866451248526573 0.9851643219590187 0.983706071972847 0.9822574406862259
          0.9808172285556793 0.9793771281838417 0.9779385700821877 0.9764858037233353 0.9750102013349533 0.9735096544027328
          0.9719910472631454 0.9704482853412628 0.9688624143600464 0.9672523811459541 0.9656219705939293 0.963973268866539
          0.9623081162571907 0.9606284201145172 0.9589358568191528 0.9572326019406319 0.955520436167717 0.9538073837757111
          0.9521070495247841 0.950402706861496 0.9486964195966721 0.946988619863987 0.9452692121267319 0.9435558021068573
          0.9418636336922646 0.9401889815926552 0.9385216161608696 0.9368587508797646 0.9351979717612267 0.9335469976067543
          0.6877162531018257 0.695543110370636 0.7050013914704323 0.7166072949767113 0.7306543961167336 0.7483513504266739
          0.7711930647492409 0.7996927946805954 0.8351618647575378 0.8777434378862381 0.9243263825774193 0.9732782766222954
          1.0177085250616074 1.0556857585906982 1.0815654247999191 1.1022738367319107 1.1174395382404327 1.1309374645352364
          1.143988125026226 1.15814571082592 1.1736971661448479 1.1910047084093094 1.2081377655267715 1.2240814492106438
          1.2379806488752365 1.247836321592331 1.2533364072442055 1.2566382363438606 1.2566553950309753 1.2528816685080528
          1.2466755136847496 1.2374524846673012 1.2250965163111687 1.2119416743516922 1.1973621472716331 1.1813894733786583
          1.164010114967823 1.1462061926722527 1.1286007910966873 1.1118166223168373 1.0964310392737389 1.0817125514149666
          1.06699600815773 1.0531470254063606 1.0413801223039627 1.0322010070085526 1.0249832198023796 1.0192434936761856
          1.0149084851145744 1.0122203826904297 1.0108508244156837 1.0099498331546783 1.0089439451694489 1.0077165141701698
          1.0063209235668182 1.0048168450593948 1.0032419189810753 1.0015464127063751 0.9997411370277405 0.997970461845398
          0.9962571859359741 0.9945861995220184 0.9929491430521011 0.991345226764679 0.9897649884223938 0.988208495080471
          0.9866891652345657 0.9851861745119095 0.9836985766887665 0.9822191968560219 0.9807424247264862 0.9792659133672714
          0.9777832329273224 0.9762778207659721 0.9747465178370476 0.973188191652298 0.9716000556945801 0.9699788764119148
          0.9683293327689171 0.966657891869545 0.9649666324257851 0.9632573872804642 0.9615322202444077 0.9597932323813438
          0.9580423980951309 0.956281989812851 0.9545136243104935 0.9527429193258286 0.9509897381067276 0.949234277009964
          0.9474542737007141 0.9456751793622971 0.9439145252108574 0.9421678707003593 0.9404416307806969 0.9387270659208298
          0.937013678252697 0.9353068321943283 0.9336103424429893 0.9319248497486115 0.6818870976567268 0.688655711710453
          0.696791522204876 0.706661619246006 0.7188055291771889 0.7335971891880035 0.7524458914995193 0.7767620235681534
          0.8072441592812538 0.8448561728000641 0.8896625936031342 0.9383000656962395 0.9871093854308128 1.030899241566658
          1.0653895288705826 1.089812584221363 1.1078387275338173 1.121839702129364 1.135371170938015 1.1481628566980362
          1.1633768156170845 1.1795089468359947 1.1971199437975883 1.2140504866838455 1.2293920814990997 1.2420941144227982
          1.2499331310391426 1.2543929740786552 1.2564801201224327 1.254609391093254 1.249494269490242 1.2416075095534325
          1.2303501516580582 1.2172956392168999 1.2031097710132599 1.1872946918010712 1.1700100600719452 1.1517986953258514
          1.133650004863739 1.115955263376236 1.099715806543827 1.0843356773257256 1.0690381526947021 1.0545319691300392
          1.042196974158287 1.0326062887907028 1.0250505805015564 1.0191478058695793 1.014931045472622 1.0125280991196632
          1.0114136040210724 1.010524831712246 1.0094373002648354 1.008133478462696 1.0066892579197884 1.0051443427801132
          1.003529042005539 1.0018090456724167 0.9999799877405167 0.9981832280755043 0.9964419826865196 0.9947454780340195
          0.9930816292762756 0.9914521872997284 0.9898438602685928 0.9882634356617928 0.9867185726761818 0.9851999878883362
          0.9836872667074203 0.9821726754307747 0.9806578084826469 0.9791402891278267 0.9775997623801231 0.9760347977280617
          0.9744424223899841 0.9728042036294937 0.9711415767669678 0.9694505259394646 0.9677359163761139 0.9659997373819351
          0.9642440751194954 0.9624710977077484 0.9606831893324852 0.9588822573423386 0.957070603966713 0.9552501887083054
          0.9534235969185829 0.951593890786171 0.9497688859701157 0.947935201227665 0.9461047649383545 0.9442895725369453
          0.9424847811460495 0.940696120262146 0.9389288052916527 0.9371637478470802 0.9354085177183151 0.9336642995476723
          0.931931771337986 0.9302103891968727 0.6767599657177925 0.6826308444142342 0.6896345093846321 0.6980996876955032
          0.708411693572998 0.7211113348603249 0.736752837896347 0.7568754851818085 0.7827449813485146 0.8154309317469597
          0.8556530922651291 0.9022820293903351 0.9527593851089478 1.0011460706591606 1.043504111468792 1.0742323026061058
          1.0970324128866196 1.1129988431930542 1.1262843757867813 1.1392355784773827 1.152695544064045 1.1684794127941132
          1.1855863630771637 1.2031181156635284 1.2198575511574745 1.2344951778650284 1.2451494708657265 1.251378171145916
          1.2550900876522064 1.25535948574543 1.2516261339187622 1.2452597841620445 1.2354150265455246 1.2224527895450592
          1.2088023200631142 1.1932636424899101 1.1761117354035378 1.1575708091259003 1.1389798671007156 1.120448037981987
          1.1032281890511513 1.0871214345097542 1.0712341889739037 1.0560516640543938 1.0431163907051086 1.0330606326460838
          1.0251372158527374 1.0191061571240425 1.0150756761431694 1.0130000710487366 1.0120598152279854 1.0111359059810638
          1.0099528953433037 1.0085785537958145 1.0070852860808372 1.0055021941661835 1.0038444176316261 1.0020758137106895
          1.0002464428544044 0.998423732817173 0.9966488480567932 0.9949216842651367 0.9932278022170067 0.9915702641010284
          0.9899311140179634 0.988323025405407 0.9867480471730232 0.9851949363946915 0.9836602061986923 0.9821134135127068
          0.9805607125163078 0.9789856448769569 0.9773835092782974 0.9757515862584114 0.9740688353776932 0.9723579436540604
          0.9706214815378189 0.9688621014356613 0.9670790433883667 0.9652746468782425 0.9634512886404991 0.9616114273667336
          0.9597574472427368 0.9578916281461716 0.9560165852308273 0.954134427011013 0.9522381573915482 0.9503214731812477
          0.9484317004680634 0.9465509206056595 0.9446816965937614 0.942818358540535 0.94096240401268 0.9391265511512756
          0.9373073056340218 0.9355016052722931 0.9337077587842941 0.9319259002804756 0.9301557540893555 0.9284014701843262
          0.6723074018955231 0.6773294880986214 0.6834018528461456 0.6906557381153107 0.6994794607162476 0.7102950513362885
          0.7235650718212128 0.7401299402117729 0.7616762220859528 0.7892388552427292 0.8243486434221268 0.8672283664345741
          0.9157443419098854 0.96742182970047 1.0152467116713524 1.0552990809082985 1.0824646055698395 1.1030313372612
          1.1176778823137283 1.1305844187736511 1.1428207233548164 1.1576950028538704 1.1739736646413803 1.1917099952697754
          1.2091860547661781 1.225417621433735 1.2388636991381645 1.2473902255296707 1.252642661333084 1.255055382847786
          1.2533045336604118 1.2481673285365105 1.2398443967103958 1.2278360277414322 1.214385524392128 1.1992527693510056
          1.1822819709777832 1.1636094897985458 1.144575610756874 1.125274270772934 1.1069951951503754 1.090092957019806
          1.073567733168602 1.057719849050045 1.0441445410251617 1.0335455611348152 1.0252567827701569 1.0191414058208466
          1.0153663083910942 1.0136156231164932 1.0127655044198036 1.0117806866765022 1.0105002224445343 1.009057641029358
          1.0075147673487663 1.0058918744325638 1.0041688680648804 1.0023478120565414 1.0005334168672562 0.9986899197101593
          0.9968831166625023 0.9951137527823448 0.993386410176754 0.9916978925466537 0.990024633705616 0.9883846715092659
          0.9867738783359528 0.9851882681250572 0.9836073145270348 0.9820322692394257 0.9804329872131348 0.9787971824407578
          0.9771269783377647 0.9753991886973381 0.9736407175660133 0.9718498960137367 0.9700377061963081 0.9682044759392738
          0.9663481116294861 0.9644712135195732 0.9625763073563576 0.9606659635901451 0.9587428718805313 0.9568096473813057
          0.9548689052462578 0.9528952017426491 0.9509182795882225 0.9489484652876854 0.9470096752047539 0.9450826272368431
          0.9431618228554726 0.9412491098046303 0.9393368065357208 0.937448613345623 0.9355864971876144 0.9337391033768654
          0.9319047629833221 0.930085077881813 0.9282837882637978 0.926486998796463 0.6683799549937248 0.6727250963449478
          0.6779189854860306 0.6842003688216209 0.6917269825935364 0.7009396106004715 0.7122903242707253 0.7261838391423225
          0.7437853291630745 0.766853429377079 0.7963185906410217 0.8338419124484062 0.8794595897197723 0.9300379753112793
          0.9823940098285675 1.0291565656661987 1.065610483288765 1.090769685804844 1.1082223430275917 1.1214961856603622
          1.1343261897563934 1.1471577510237694 1.1626893281936646 1.179710902273655 1.1977293938398361 1.2151610106229782
          1.2306039109826088 1.2420889511704445 1.249116562306881 1.253359280526638 1.2538727298378944 1.2502446547150612
          1.2436107397079468 1.2331076934933662 1.2198382839560509 1.205190859735012 1.1884697824716568 1.1698324903845787
          1.150409534573555 1.1304438710212708 1.1110416874289513 1.0932612493634224 1.0760668441653252 1.0595503747463226
          1.0452845245599747 1.0340852066874504 1.0254206359386444 1.0192837119102478 1.0158289968967438 1.0143703073263168
          1.0135218650102615 1.0124616548418999 1.0110843628644943 1.0095773115754128 1.0079805180430412 1.0063126385211945
          1.0045091658830643 1.002648301422596 1.0008223205804825 0.9989810511469841 0.9971372112631798 0.9953253641724586
          0.9935561046004295 0.9918332472443581 0.9901218414306641 0.988444596529007 0.9867981448769569 0.985167846083641
          0.9835542216897011 0.9819247499108315 0.9802603125572205 0.9785611256957054 0.9767930656671524 0.9749874100089073
          0.9731475338339806 0.9712729007005692 0.9693789035081863 0.9674673527479172 0.9655335023999214 0.9635800272226334
          0.9616099447011948 0.9596261158585548 0.9576311782002449 0.9556115791201591 0.9535729810595512 0.9515380635857582
          0.9495049491524696 0.9474800229072571 0.9454895108938217 0.9435081109404564 0.9415321946144104 0.9395595788955688
          0.9376006051898003 0.9356655701994896 0.9337607175111771 0.9318715780973434 0.9299985095858574 0.9281432032585144
          0.9262927919626236 0.9244423285126686 0.6648025065660477 0.6686942800879478 0.6731541603803635 0.6785277351737022
          0.6850255057215691 0.6928505972027779 0.702476866543293 0.714407280087471 0.728987418115139 0.7477835863828659
          0.7724809423089027 0.8040718659758568 0.8441487029194832 0.8924079388380051 0.9451207742094994 0.9975038021802902
          1.042463831603527 1.0746576562523842 1.09784534573555 1.1128483191132545 1.1254656240344048 1.1373371183872223
          1.1514869406819344 1.1678712218999863 1.185796931385994 1.2037766203284264 1.2210031226277351 1.2352053299546242
          1.2444789409637451 1.2506449595093727 1.2533313855528831 1.2518133521080017 1.24660424888134 1.2378778606653214
          1.2252057641744614 1.2110506445169449 1.1947079077363014 1.1762219220399857 1.1564329117536545 1.1359568163752556
          1.115398719906807 1.0966387540102005 1.0787386447191238 1.0615330338478088 1.0465349778532982 1.034682273864746
          1.0256468877196312 1.0195757821202278 1.0164866149425507 1.0152408629655838 1.0143313258886337 1.0131755694746971
          1.0117140486836433 1.010142832994461 1.008489616215229 1.0067643150687218 1.0048794746398926 1.0029779598116875
          1.001119427382946 0.9992876797914505 0.9974092245101929 0.9955539107322693 0.9937367364764214 0.9919730722904205
          0.9902193695306778 0.9885041266679764 0.9868170917034149 0.9851473793387413 0.9834767952561378 0.9817782640457153
          0.98004100471735 0.9782332926988602 0.9763913452625275 0.9745055586099625 0.9725770354270935 0.970617413520813
          0.9686393737792969 0.9666420146822929 0.9646255522966385 0.9625918120145798 0.9605432003736496 0.9584801569581032
          0.9563787803053856 0.9542770460247993 0.9521759375929832 0.9500753059983253 0.9479863941669464 0.945903904736042
          0.9438564628362656 0.9418131932616234 0.9397774860262871 0.9377542361617088 0.9357537180185318 0.933773435652256
          0.9318211749196053 0.929893359541893 0.927980400621891 0.9260687232017517 0.924159936606884 0.9222651198506355
          0.6615450233221054 0.6650296747684479 0.6690139472484589 0.6736064255237579 0.6791561990976334 0.6858833730220795
          0.6940271705389023 0.7040932551026344 0.7166418805718422 0.7319952771067619 0.7521115019917488 0.778543621301651
          0.8125622197985649 0.8555042520165443 0.9061999097466469 0.9605963453650475 1.0124408081173897 1.0548165813088417
          1.0831345319747925 1.103325478732586 1.1168193817138672 1.1288040801882744 1.1409822553396225 1.1562652289867401
          1.1734779924154282 1.1917290166020393 1.2099049091339111 1.2262376323342323 1.2386280074715614 1.2465156838297844
          1.251524604856968 1.2521622255444527 1.2488505765795708 1.2417504042387009 1.2306650578975677 1.216801293194294
          1.2009435147047043 1.1827335953712463 1.1626667827367783 1.1418049186468124 1.120131678879261 1.100232906639576
          1.0815593749284744 1.0636712983250618 1.0478929430246353 1.0353415608406067 1.0259664133191109 1.0200504288077354
          1.017335332930088 1.0162135735154152 1.0151931643486023 1.0139156058430672 1.0123888403177261 1.010753720998764
          1.0090421289205551 1.0072397515177727 1.0052813440561295 1.0033327341079712 1.0014372915029526 0.9995826482772827
          0.9976926222443581 0.9957899376749992 0.9939294531941414 0.9921142533421516 0.9903181567788124 0.9885635524988174
          0.9868287742137909 0.9851063266396523 0.9833628311753273 0.9815861061215401 0.9797368124127388 0.977841392159462
          0.9759070873260498 0.9739356338977814 0.9719223231077194 0.9698724821209908 0.9678060784935951 0.9657213985919952
          0.9636172205209732 0.9614976942539215 0.9593476802110672 0.9571773782372475 0.9550066217780113 0.9528335630893707
          0.9506633505225182 0.9485040232539177 0.9463509097695351 0.9442043751478195 0.9420915991067886 0.9399895295500755
          0.9379016980528831 0.9358291104435921 0.9337868615984917 0.931763045489788 0.9297639578580856 0.9277834519743919
          0.9258126094937325 0.9238457679748535 0.9218884482979774 0.9199455752968788 0.6586489230394363 0.6617007926106453
          0.6652584299445152 0.6693389564752579 0.6740802451968193 0.6798129454255104 0.6867759823799133 0.6952588483691216
          0.7058154121041298 0.7189440503716469 0.7352320626378059 0.7568179219961166 0.7850816771388054 0.8220338597893715
          0.8679422736167908 0.9209279865026474 0.9768016710877419 1.0271265432238579 1.065385140478611 1.0912540704011917
          1.1077450960874557 1.1199645102024078 1.1317423209547997 1.1449469923973083 1.1612344458699226 1.1794326230883598
          1.197929933667183 1.2160432860255241 1.231058657169342 1.241245649755001 1.2484355494379997 1.2513848170638084
          1.250247374176979 1.2449300587177277 1.2358015179634094 1.222515545785427 1.2071547210216522 1.189292699098587
          1.1691971272230148 1.147937260568142 1.1252712830901146 1.104065664112568 1.0845512673258781 1.065942458808422
          1.049353502690792 1.0360683500766754 1.0263889357447624 1.0207416713237762 1.0183684602379799 1.0172779485583305
          1.0161065012216568 1.0147012025117874 1.013112522661686 1.0114096775650978 1.0096296295523643 1.0077253803610802
          1.0057145655155182 1.0037217810750008 1.001780517399311 0.9998756870627403 0.9979776665568352 0.9960368946194649
          0.9941297397017479 0.9922610968351364 0.9904136881232262 0.9886055141687393 0.9868261441588402 0.98503028601408
          0.9832063317298889 0.9813128113746643 0.9793725833296776 0.9773788824677467 0.9753460437059402 0.9732761085033417
          0.9711744785308838 0.9690346419811249 0.9668749049305916 0.964697815477848 0.9625023230910301 0.9602594897150993
          0.9580151215195656 0.9557671397924423 0.953517384827137 0.9512742012739182 0.9490396678447723 0.9468127563595772
          0.9445886611938477 0.9423748254776001 0.9402026459574699 0.9380456358194351 0.935904860496521 0.9337872713804245
          0.9316965192556381 0.9296192452311516 0.927562527358532 0.9255255535244942 0.9234973341226578 0.9214737936854362
          0.9194671809673309 0.9174719974398613 0.6559902876615524 0.6587465107440948 0.6618601232767105 0.6654884442687035
          0.6696692183613777 0.6745669916272163 0.6804929152131081 0.6877056285738945 0.6965484842658043 0.7076489478349686
          0.7214006930589676 0.7387931644916534 0.7619174718856812 0.7922935634851456 0.8322221338748932 0.8813657090067863
          0.9365233480930328 0.9931825697422028 1.041176326572895 1.0749699473381042 1.0978710353374481 1.1115408688783646
          1.1230258867144585 1.1342674791812897 1.1492132097482681 1.1666644141077995 1.1851702332496643 1.2041490450501442
          1.2214516922831535 1.2347496151924133 1.243737854063511 1.2493832558393478 1.2504061833024025 1.2472407668828964
          1.2399398908019066 1.2279553413391113 1.2132195457816124 1.1958560645580292 1.1759110689163208 1.1542323976755142
          1.13080632686615 1.1081612557172775 1.0877057760953903 1.0683493837714195 1.050903633236885 1.0368670746684074
          1.0269846320152283 1.0216824263334274 1.0195775032043457 1.0184129253029823 1.0170716494321823 1.0155377238988876
          1.0138715505599976 1.0121044963598251 1.0102525278925896 1.0082430243492126 1.0061765238642693 1.0041421875357628
          1.0021506771445274 1.0001913383603096 0.9982520341873169 0.996292419731617 0.9943366274237633 0.9924168512225151
          0.9905102327466011 0.9886528998613358 0.9867940470576286 0.9849104434251785 0.9829657450318336 0.98096814006567
          0.9789257198572159 0.9768278524279594 0.974688820540905 0.9725150316953659 0.970310628414154 0.9680797159671783
          0.9658254534006119 0.9635346680879593 0.9612160325050354 0.9588895365595818 0.9565574005246162 0.9542234390974045
          0.9519022703170776 0.9495882093906403 0.9472800940275192 0.9449752867221832 0.9426822811365128 0.9404094144701958
          0.9381803721189499 0.9359689876437187 0.933771975338459 0.9316044971346855 0.9294562563300133 0.9273283407092094
          0.9252140000462532 0.9231139272451401 0.9210231453180313 0.9189462140202522 0.9168835431337357 0.9148348346352577
          0.6535795629024506 0.6560312062501907 0.6588350832462311 0.6620173305273056 0.6657192409038544 0.6700048297643661
          0.6750662177801132 0.6811970695853233 0.6886747628450394 0.6979144364595413 0.709589995443821 0.7240336239337921
          0.7426573261618614 0.7674772217869759 0.800235778093338 0.8432801514863968 0.8955802544951439 0.9527245089411736
          1.0093003138899803 1.053987868130207 1.0834134817123413 1.1026604399085045 1.1145321726799011 1.1255405694246292
          1.1381063535809517 1.15405984967947 1.172567494213581 1.191450484097004 1.2105233743786812 1.2264650762081146
          1.2376761808991432 1.245955191552639 1.2493591532111168 1.2486042082309723 1.2431997880339622 1.233370617032051
          1.2193481177091599 1.2024198025465012 1.1826629340648651 1.1606935635209084 1.1367380991578102 1.112540140748024
          1.0910095795989037 1.0708564221858978 1.0525124073028564 1.037766382098198 1.027808926999569 1.022897981107235
          1.0209547579288483 1.019618235528469 1.0180962160229683 1.0164243429899216 1.0146729573607445 1.012845754623413
          1.0109096020460129 1.0087913796305656 1.0066678449511528 1.0045913457870483 1.0025539845228195 1.0005327314138412
          0.9985307157039642 0.9965509623289108 0.9945455938577652 0.992569237947464 0.9906138256192207 0.9886682778596878
          0.9867148473858833 0.9847115129232407 0.9826460555195808 0.9805375933647156 0.9783812686800957 0.9761684834957123
          0.9739186316728592 0.9716362059116364 0.9693249836564064 0.9669875279068947 0.964615598320961 0.9622111469507217
          0.9597967490553856 0.9573769941926003 0.9549600630998611 0.952552355825901 0.9501501768827438 0.9477501660585403
          0.9453617930412292 0.9429865553975105 0.9406288713216782 0.9383005872368813 0.9360066503286362 0.9337347149848938
          0.9314866587519646 0.9292678311467171 0.9270623400807381 0.9248740524053574 0.9226943328976631 0.9205224812030792
          0.9183720722794533 0.916237898170948 0.9141224548220634 0.9120327010750771 0.6513586714863777 0.6535767540335655
          0.6560672596096992 0.6589197739958763 0.6621674969792366 0.6659552827477455 0.6703617125749588 0.6755776479840279
          0.6819259822368622 0.6896861642599106 0.6993548721075058 0.7116502001881599 0.7268595770001411 0.7468280792236328
          0.7735780701041222 0.8091604933142662 0.8553535640239716 0.9107742086052895 0.9699317961931229 1.024841032922268
          1.0649206340312958 1.0910193473100662 1.1060218513011932 1.1169323921203613 1.12747972458601 1.1417344063520432
          1.1592717319726944 1.178035981953144 1.197727084159851 1.216193400323391 1.2304811850190163 1.24068883061409
          1.2470896542072296 1.2486513406038284 1.245636761188507 1.2380557209253311 1.2251067087054253 1.208897314965725
          1.189534068107605 1.1673136353492737 1.1430346593260765 1.1172318682074547 1.0944587141275406 1.0734031423926353
          1.0541687905788422 1.0388021022081375 1.0289306789636612 1.0243948325514793 1.0224860832095146 1.0208976417779922
          1.0191729813814163 1.0173799321055412 1.0155309066176414 1.013632133603096 1.011566884815693 1.009368509054184
          1.0071952566504478 1.0050802901387215 1.002981312572956 1.000888854265213 0.9988146722316742 0.99677724391222
          0.9947485700249672 0.9927233383059502 0.9906892254948616 0.9886440485715866 0.9865655601024628 0.9844225719571114
          0.9822371751070023 0.9800047278404236 0.977726548910141 0.9753920286893845 0.9730228260159492 0.9706232994794846
          0.9681921228766441 0.965713657438755 0.9632361233234406 0.9607384726405144 0.9582264050841331 0.9557196497917175
          0.9532190337777138 0.9507223963737488 0.9482295885682106 0.945750467479229 0.9432864040136337 0.940837912261486
          0.9384090080857277 0.9360194429755211 0.9336718022823334 0.9313419237732887 0.9290443882346153 0.9267627149820328
          0.9244912341237068 0.9222337305545807 0.9199839308857918 0.9177415817975998 0.9155294969677925 0.9133438542485237
          0.9111872687935829 0.9090524390339851 0.6492854878306389 0.6513187885284424 0.6535681486129761 0.6560979783535004
          0.6590000465512276 0.6623151004314423 0.6661888286471367 0.6707231104373932 0.6761017739772797 0.6826804876327515
          0.6907428354024887 0.7008717432618141 0.7138423770666122 0.7299262434244156 0.7513810768723488 0.7802112773060799
          0.8191524371504784 0.8688051998615265 0.9269614294171333 0.9878753647208214 1.0396333932876587 1.0748470947146416
          1.096975639462471 1.108600303530693 1.1187812089920044 1.1303439885377884 1.1463090628385544 1.1648703888058662
          1.1841932982206345 1.2044003084301949 1.2214137315750122 1.2336945086717606 1.243237480521202 1.2473797425627708
          1.2470626533031464 1.241481639444828 1.2306253910064697 1.2154644653201103 1.1965170502662659 1.1743269488215446