<VTKFile type="PolyData" version="1.0" byte_order="LittleEndian" header_type="UInt64">
  <PolyData>
    <Piece NumberOfPoints="10000" NumberOfVerts="0" NumberOfLines="0" NumberOfStrips="0" NumberOfPolys="9801">
      <PointData>
        <DataArray type="Float32" Name="zvalue" NumberOfComponents="1" format="ascii" RangeMin="0.514900216832757" RangeMax="1.5814823433756828">
          0.6886565759778023 0.6880016475915909 0.6870648413896561 0.6862460225820541 0.6853251159191132 0.6840956136584282
          0.6826327219605446 0.6815864443778992 0.6806290224194527 0.6796126067638397 0.678665392100811 0.6775670424103737
          0.6758910566568375 0.6723214313387871 0.6668678149580956 0.6632016226649284 0.6611314937472343 0.660121738910675
          0.657741591334343 0.6550463140010834 0.6516682952642441 0.6494334191083908 0.6480854600667953 0.6481482684612274
          0.6501021943986416 0.6516420692205429 0.6524330675601959 0.6529443114995956 0.6541771963238716 0.6564351171255112
          0.6593593508005142 0.6628386899828911 0.6672367602586746 0.6712729707360268 0.6745442301034927 0.6778582483530045
          0.6789176091551781 0.6778097413480282 0.675788052380085 0.6729173064231873 0.6696692518889904 0.6672975048422813
          0.6648864038288593 0.6618092693388462 0.660338781774044 0.6601695641875267 0.6600734740495682 0.6604341566562653
          0.6570603251457214 0.6533244103193283 0.6500465720891953 0.6500462964177132 0.6517444029450417 0.6526319608092308
          0.6546835601329803 0.6628517881035805 0.6669496148824692 0.6643089801073074 0.6620305106043816 0.666181668639183
          0.6685565486550331 0.669733077287674 0.6694647967815399 0.6707206517457962 0.6682048067450523 0.6803329437971115
          0.6842362582683563 0.6783198565244675 0.6700107976794243 0.6722715720534325 0.659815602004528 0.6532206684350967
          0.6448594033718109 0.651290126144886 0.6648906916379929 0.688767209649086 0.6718510165810585 0.6699872463941574
          0.6651894152164459 0.6689122691750526 0.6727066710591316 0.6653703600168228 0.6597939878702164 0.6485225595533848
          0.6676541641354561 0.6791362166404724 0.6793870255351067 0.6823839098215103 0.6838506832718849 0.6702049598097801
          0.6661179959774017 0.6636202111840248 0.6710504814982414 0.6798031702637672 0.6840660944581032 0.6885031834244728
          0.690699003636837 0.6909571141004562 0.6903757750988007 0.6896112933754921 0.6880866810679436 0.6873352751135826
          0.686270534992218 0.6854223757982254 0.6845604553818703 0.68321742862463 0.6817438527941704 0.6808900609612465
          0.6805204302072525 0.6794347241520882 0.6783980652689934 0.6772463023662567 0.6746148094534874 0.67018161714077
          0.6645928174257278 0.6587784513831139 0.6565913036465645 0.6573178172111511 0.656738393008709 0.6549877151846886
          0.6525557041168213 0.6516220271587372 0.6511857807636261 0.6534378193318844 0.6513450816273689 0.6503532975912094
          0.6514925584197044 0.6527556702494621 0.654201328754425 0.6563219577074051 0.6589721217751503 0.6628241464495659
          0.6674108132719994 0.6711364537477493 0.6734094470739365 0.6753451824188232 0.6770521216094494 0.6764502637088299
          0.6750822812318802 0.6730357818305492 0.670502033084631 0.6683521494269371 0.6654417887330055 0.6602409332990646
          0.6572537459433079 0.6556233391165733 0.6557206213474274 0.6567924842238426 0.6527403518557549 0.6491130962967873
          0.6463970094919205 0.6477816924452782 0.6506731361150742 0.6539110913872719 0.6570835933089256 0.6646313965320587
          0.6650192737579346 0.6601943820714951 0.6599815711379051 0.6639819294214249 0.6682808846235275 0.6687407568097115
          0.673760399222374 0.6719933822751045 0.6762386932969093 0.6853183656930923 0.6820620149374008 0.6772446632385254
          0.6796365454792976 0.6779829859733582 0.6640202924609184 0.6566165238618851 0.6535912901163101 0.647268071770668
          0.6539532542228699 0.6565518006682396 0.6642681211233139 0.6652621701359749 0.6638869792222977 0.6634728610515594
          0.6706880927085876 0.6635424718260765 0.651117492467165 0.672053374350071 0.6704170927405357 0.682244211435318
          0.698104701936245 0.6795351952314377 0.6768583655357361 0.6692665740847588 0.6702587902545929 0.6710782647132874
          0.6767663210630417 0.6826288625597954 0.6906103044748306 0.6914222165942192 0.6885786429047585 0.6754210591316223
          0.6822980046272278 0.6900380030274391 0.6875973716378212 0.686793178319931 0.6857237443327904 0.6849627271294594
          0.6840452179312706 0.6827220618724823 0.6811527460813522 0.680778831243515 0.6803639158606529 0.6794279217720032
          0.6783000230789185 0.6770772561430931 0.6747467815876007 0.6695920825004578 0.6631162092089653 0.6571296751499176
          0.6543477848172188 0.654513530433178 0.6541341096162796 0.6534155905246735 0.6516324281692505 0.6532969623804092
          0.6578050553798676 0.6578128561377525 0.6540762968361378 0.650652177631855 0.6502817198634148 0.6514057964086533
          0.6532017886638641 0.6551630720496178 0.6577607914805412 0.6619791835546494 0.6669665426015854 0.6705104038119316
          0.6721091791987419 0.6733747124671936 0.6754102781414986 0.676395233720541 0.6750345006585121 0.6729500852525234
          0.6706798002123833 0.6686801761388779 0.6648727133870125 0.659019511193037 0.6561533808708191 0.6538320519030094
          0.6547886580228806 0.6557660922408104 0.6507470682263374 0.6453972570598125 0.6425876542925835 0.6482070162892342
          0.6519187912344933 0.6551998145878315 0.6578708812594414 0.6616723984479904 0.6573874726891518 0.6515768393874168
          0.657408744096756 0.6644850671291351 0.6650258973240852 0.6690320149064064 0.6767682805657387 0.6779324784874916
          0.6860828399658203 0.6844018399715424 0.6829775795340538 0.678290493786335 0.6766385212540627 0.6659805998206139
          0.6564482226967812 0.6517976894974709 0.6478720083832741 0.6426878571510315 0.6473337560892105 0.651604987680912
          0.6619629338383675 0.6685128509998322 0.6677358373999596 0.672288067638874 0.6773555427789688 0.6636864244937897
          0.6671947315335274 0.6735845059156418 0.6858714371919632 0.689550094306469 0.6821968927979469 0.6710381060838699
          0.6686795651912689 0.6610776409506798 0.6693045273423195 0.667507991194725 0.680779442191124 0.690336637198925
          0.6973530650138855 0.6852463856339455 0.6807548999786377 0.6836345717310905 0.6879785358905792 0.687281034886837
          0.6872197315096855 0.686513751745224 0.6855535805225372 0.6848498359322548 0.6837745979428291 0.6822288185358047
          0.6808910965919495 0.6809056326746941 0.6804813370108604 0.6797352060675621 0.6788145750761032 0.6786912754178047
          0.6757085919380188 0.6705205589532852 0.6638601049780846 0.6563572511076927 0.6530209928750992 0.6522480323910713
          0.6537014320492744 0.6536669507622719 0.6534207463264465 0.6566609889268875 0.6610787436366081 0.6619892343878746
          0.6584231033921242 0.6537384986877441 0.6515034660696983 0.651621013879776 0.6522341966629028 0.6533083245158195
          0.6563777402043343 0.6611552238464355 0.6661830097436905 0.6699741184711456 0.6720123402774334 0.6736197024583817
          0.6754754334688187 0.6762699522078037 0.674536719918251 0.6724342070519924 0.6702948957681656 0.6685157679021358
          0.6647186428308487 0.6619285121560097 0.6576075926423073 0.6539179906249046 0.6551310122013092 0.655094712972641
          0.6487457007169724 0.642182894051075 0.6417301148176193 0.6474653370678425 0.6515759751200676 0.6540166437625885
          0.653579831123352 0.6530585177242756 0.6467483192682266 0.647559329867363 0.6539163365960121 0.6604623347520828
          0.6629840433597565 0.6751609444618225 0.6788287460803986 0.686099287122488 0.6856923922896385 0.683465376496315
          0.6894831731915474 0.6822468414902687 0.6621514111757278 0.6471864208579063 0.6515026390552521 0.6532986983656883
          0.637836892157793 0.6399028152227402 0.6474618315696716 0.6461463645100594 0.6620825678110123 0.6598930433392525
          0.6691731512546539 0.6768087819218636 0.6734056323766708 0.6843072026968002 0.6921029612421989 0.6948708072304726
          0.691941112279892 0.6902240812778473 0.6829488724470139 0.6761563718318939 0.6693274676799774 0.6671798899769783
          0.6723813563585281 0.6843174770474434 0.6967802196741104 0.681872121989727 0.6757823824882507 0.6679562777280807
          0.6790180429816246 0.6811706647276878 0.684936560690403 0.6945453211665154 0.6870246604084969 0.6867773234844208
          0.6856768429279327 0.6847897171974182 0.6834234371781349 0.6816371083259583 0.6803385019302368 0.6802343279123306
          0.680008053779602 0.6795402094721794 0.6799292862415314 0.6798454821109772 0.6771248430013657 0.6721707582473755
          0.664516843855381 0.6563521698117256 0.6517246216535568 0.6500032469630241 0.652503103017807 0.6547042727470398
          0.656586617231369 0.6621197760105133 0.6639615148305893 0.6636228635907173 0.660730704665184 0.6577167883515358
          0.6551438793540001 0.6542857512831688 0.6528788805007935 0.6528872027993202 0.6564792841672897 0.6615847013890743
          0.6663747355341911 0.6706754118204117 0.6737102381885052 0.6754588298499584 0.6756758838891983 0.6752060987055302
          0.6743049994111061 0.6718420758843422 0.6699287444353104 0.6688925996422768 0.6675706952810287 0.6650380045175552
          0.657599925994873 0.6526982113718987 0.6530956402420998 0.6519916206598282 0.6496553495526314 0.6434908807277679
          0.6425916962325573 0.6469497419893742 0.6506058312952518 0.6537618339061737 0.652312159538269 0.6502330973744392
          0.6490608751773834 0.6533596739172935 0.6575488224625587 0.660126619040966 0.6676609888672829 0.6727321445941925
          0.6783359497785568 0.6819009408354759 0.6903174370527267 0.691196858882904 0.6840523555874825 0.6673121005296707
          0.6590499058365822 0.6443876661360264 0.6475008502602577 0.6472081169486046 0.6379119455814362 0.6437000408768654
          0.6518211737275124 0.6523904874920845 0.6564636826515198 0.6709335520863533 0.6668116450309753 0.6783502548933029
          0.6761585846543312 0.6780242770910263 0.6772196814417839 0.6783860772848129 0.6845456212759018 0.6751666367053986
          0.6699083894491196 0.6860101073980331 0.6945352256298065 0.6798526719212532 0.682247020304203 0.678817555308342
          0.6877577379345894 0.6833633258938789 0.6695055440068245 0.6655481532216072 0.6787059456110001 0.6779533922672272
          0.6902742385864258 0.6980638578534126 0.6873258203268051 0.6873845309019089 0.685927040874958 0.6846969872713089
          0.6830435395240784 0.6809127777814865 0.6796637028455734 0.6794644296169281 0.679571233689785 0.6798239499330521
          0.6800711452960968 0.6800260171294212 0.6785364523530006 0.6736576482653618 0.6664375066757202 0.6586031466722488
          0.6522625461220741 0.6501962691545486 0.6521177887916565 0.6562071591615677 0.6606038883328438 0.6637985408306122
          0.6676086187362671 0.6658260375261307 0.6617052182555199 0.6591448560357094 0.6577841266989708 0.6566098779439926
          0.6548778116703033 0.6549424603581429 0.6585633754730225 0.66354164108634 0.6687439009547234 0.6738588698208332
          0.6770309954881668 0.6769168451428413 0.6754483282566071 0.674003429710865 0.6732272580265999 0.6699794605374336
          0.6682593040168285 0.6688759513199329 0.6680125072598457 0.6635698452591896 0.6555837839841843 0.6523779630661011
          0.6525445803999901 0.6510849893093109 0.6487133279442787 0.6433830186724663 0.6434053592383862 0.646673034876585
          0.651613112539053 0.6549062877893448 0.6567247360944748 0.6592867970466614 0.6657278388738632 0.6664706394076347
          0.6632463708519936 0.6658506318926811 0.6671391949057579 0.6674408912658691 0.6748914420604706 0.6889657080173492
          0.6912496164441109 0.6887957900762558 0.6735320463776588 0.665719099342823 0.6594962812960148 0.6451360397040844
          0.6503546722233295 0.6586588025093079 0.6461916491389275 0.6489762663841248 0.6586941778659821 0.6558824554085732
          0.6650342121720314 0.6671237125992775 0.6821110397577286 0.6884540468454361 0.6679909527301788 0.66438839584589
          0.6626927256584167 0.6710318624973297 0.6830809265375137 0.6924225986003876 0.6943647414445877 0.6990935504436493
          0.6786303669214249 0.6897804588079453 0.6772221624851227 0.6749611124396324 0.6839656382799149 0.6768436878919601
          0.6615838631987572 0.6720443367958069 0.6819173395633698 0.6874623373150826 0.6939121261239052 0.697333313524723
          0.6880327090620995 0.6879114583134651 0.6862840354442596 0.6849332749843597 0.6830160692334175 0.6805810555815697
          0.6794623360037804 0.6791182160377502 0.6794042363762856 0.6796768382191658 0.6806126832962036 0.6810561344027519
          0.6787789389491081 0.6738455966114998 0.6696740537881851 0.6628389656543732 0.6559577658772469 0.6529769971966743
          0.6547696888446808 0.6596828624606133 0.6637171283364296 0.6670090481638908 0.6692716553807259 0.6670821085572243
          0.6633857265114784 0.661055900156498 0.6596618369221687 0.6579993031919003 0.6570858061313629 0.6584236919879913
          0.6622301675379276 0.6682931073009968 0.6741828583180904 0.6781803779304028 0.6802340671420097 0.6792205013334751
          0.6764603070914745 0.6733341291546822 0.6700199954211712 0.66741693764925 0.667853619903326 0.6673457249999046
          0.6637438461184502 0.6583246812224388 0.6561033949255943 0.6592839658260345 0.6625834032893181 0.655315313488245
          0.6484533958137035 0.6468010619282722 0.6477175131440163 0.6500498913228512 0.655442338436842 0.663766659796238
          0.6680475622415543 0.6785688549280167 0.6875062137842178 0.6826569736003876 0.6772913113236427 0.6757100224494934
          0.6675532087683678 0.6706215851008892 0.6813545301556587 0.697216235101223 0.695281870663166 0.6860105432569981
          0.6707695722579956 0.656161867082119 0.6571199223399162 0.6573143787682056 0.6676484644412994 0.6649515405297279
          0.6620709449052811 0.6581496521830559 0.6652815192937851 0.6576711758971214 0.660849042236805 0.6654569655656815
          0.6648537442088127 0.6720304042100906 0.66375482827425 0.65709138661623 0.6709615588188171 0.658451683819294
          0.6658502668142319 0.6578522063791752 0.6669164076447487 0.6792790666222572 0.6688729748129845 0.6956315487623215
          0.6718968898057938 0.6697813421487808 0.6736233085393906 0.6587865725159645 0.6672545298933983 0.6781981736421585
          0.6858266070485115 0.6937324777245522 0.7006225138902664 0.6937127634882927 0.6887568458914757 0.688394732773304
          0.6867542862892151 0.6852714344859123 0.6831870153546333 0.6809464320540428 0.6801811009645462 0.6799348145723343
          0.6795647144317627 0.6795507743954659 0.6806750744581223 0.6807036697864532 0.6775142028927803 0.6732946336269379
          0.6714945882558823 0.6668652147054672 0.6602072417736053 0.6568180546164513 0.6600981205701828 0.666868731379509
          0.6704881563782692 0.672544427216053 0.6706538125872612 0.6660671904683113 0.6620231568813324 0.6595025584101677
          0.6584690101444721 0.6576430201530457 0.6593459732830524 0.6634559072554111 0.6689691469073296 0.6755435429513454
          0.6800472103059292 0.6822571828961372 0.6832223162055016 0.6817417107522488 0.6779643297195435 0.6723890379071236
          0.6681215316057205 0.6695443838834763 0.6708885505795479 0.6671233847737312 0.6587854065001011 0.6572177447378635
          0.656001590192318 0.6565826833248138 0.6600244417786598 0.6617021821439266 0.6587469205260277 0.654664907604456
          0.6558137722313404 0.6640288606286049 0.6718237176537514 0.6786249503493309 0.6902956888079643 0.7018051669001579
          0.7060185223817825 0.7053338214755058 0.6989277452230453 0.685132272541523 0.6870557218790054 0.6878914684057236
          0.6887535154819489 0.6974641568958759 0.6937691234052181 0.6758236214518547 0.6713799089193344 0.6606715172529221
          0.6577184349298477 0.6730916574597359 0.6741549149155617 0.670749694108963 0.660497285425663 0.6622981876134872
          0.6671803966164589 0.6482177078723907 0.6550253331661224 0.674473449587822 0.6637117639183998 0.6697273030877113
          0.6795258894562721 0.6597385331988335 0.655045174062252 0.6587324514985085 0.658194787800312 0.6645793095231056
          0.6634332835674286 0.668672651052475 0.6769549921154976 0.6713878437876701 0.6604705899953842 0.6704020947217941
          0.668495200574398 0.651500977575779 0.6631557941436768 0.6812038496136665 0.6839585229754448 0.7017654106020927
          0.6986090838909149 0.6957238018512726 0.6894272640347481 0.6892758905887604 0.6879082471132278 0.6863611042499542
          0.6838101148605347 0.6812519580125809 0.6802491396665573 0.6798504590988159 0.6785390377044678 0.6779617965221405
          0.6785943061113358 0.6780823022127151 0.6747227236628532 0.6714918091893196 0.6719253659248352 0.6689909994602203
          0.6628744453191757 0.659781813621521 0.6639735251665115 0.6712330058217049 0.6751669123768806 0.6750834584236145
          0.6700684279203415 0.6640294790267944 0.6586364135146141 0.6552186012268066 0.6544083803892136 0.6564397178590298
          0.6608794890344143 0.6677967198193073 0.6750038042664528 0.6808295883238316 0.68384750187397 0.6848217807710171
          0.6846656799316406 0.6825767382979393 0.6776801645755768 0.6707504540681839 0.6705021113157272 0.6727249920368195
          0.6709380522370338 0.66720100492239 0.6595440842211246 0.6540918238461018 0.6553764268755913 0.6568727344274521
          0.6559533663094044 0.6602574214339256 0.6629739329218864 0.6606630943715572 0.6664171181619167 0.6794454902410507
          0.6880516037344933 0.6996594592928886 0.7131604999303818 0.7178936004638672 0.7243668437004089 0.7299565747380257
          0.7096047028899193 0.6937147527933121 0.6889612153172493 0.6882127821445465 0.686308890581131 0.6866146586835384
          0.6893192902207375 0.6716737672686577 0.6637535765767097 0.6587067916989326 0.663031592965126 0.6716936528682709
          0.6822959184646606 0.6797903925180435 0.6679825559258461 0.6552296057343483 0.6597286909818649 0.6661064922809601
          0.6572700664401054 0.6692472845315933 0.6696569174528122 0.6552742794156075 0.6452216133475304 0.6426825672388077
          0.6410030126571655 0.6466854214668274 0.6750942915678024 0.6778644025325775 0.6684510931372643 0.6955970972776413
          0.6915247216820717 0.6755819544196129 0.6743267178535461 0.67143165320158 0.6722112819552422 0.6590277627110481
          0.6729408204555511 0.675583653151989 0.6921011582016945 0.6926609128713608 0.689654178917408 0.6985198929905891
          0.6900481060147285 0.6903287619352341 0.6889858022332191 0.6872059777379036 0.6843506097793579 0.6814687699079514
          0.6798771545290947 0.6785025149583817 0.6762610822916031 0.6753952726721764 0.6759564206004143 0.6750546544790268
          0.6718229129910469 0.6700238659977913 0.6708305329084396 0.6698644831776619 0.66572505235672 0.6604051515460014
          0.6632914170622826 0.6704916432499886 0.6767529547214508 0.6784506067633629 0.6738192364573479 0.6685799658298492
          0.6617436408996582 0.6560189574956894 0.654806986451149 0.6581063866615295 0.663756225258112 0.6704897657036781
          0.6768556497991085 0.6815847270190716 0.6837670914828777 0.6837426871061325 0.6818657368421555 0.6791133135557175
          0.6751432865858078 0.6720055937767029 0.6723481640219688 0.6713585034012794 0.6696418672800064 0.6672429740428925
          0.6617221012711525 0.6576962545514107 0.6616359874606133 0.6620963886380196 0.6650731861591339 0.6651752814650536
          0.6654274798929691 0.6728335842490196 0.6784413121640682 0.6927533820271492 0.7062173411250114 0.7200927957892418
          0.7351165860891342 0.7403077259659767 0.7428149431943893 0.7268130406737328 0.7140621915459633 0.7052679732441902
          0.6992795094847679 0.6960766240954399 0.6923871040344238 0.6805715598165989 0.6819594651460648 0.6727500930428505
          0.6677157059311867 0.6754284873604774 0.6714341565966606 0.6836119294166565 0.6752214431762695 0.6856885477900505
          0.6484458819031715 0.6483903601765633 0.6682396829128265 0.6909035295248032 0.6850585862994194 0.6478788629174232
          0.6395622119307518 0.6317954733967781 0.6249789223074913 0.6301032863557339 0.6425542533397675 0.6433953568339348
          0.6471759006381035 0.6536673083901405 0.6539484336972237 0.6621404513716698 0.6667423471808434 0.685090072453022
          0.6902925968170166 0.6924120634794235 0.6783846095204353 0.6674648448824883 0.6673855781555176 0.6820454075932503
          0.6871448084712029 0.6885156854987144 0.6992688700556755 0.6968146562576294 0.6904778629541397 0.6907693147659302
          0.6897039487957954 0.6878603994846344 0.6848732009530067 0.6813825070858002 0.6785681396722794 0.6767157912254333
          0.6736665219068527 0.672877736389637 0.6726307645440102 0.6715282499790192 0.669339545071125 0.6685828194022179
          0.6710498631000519 0.6721179708838463 0.6669604256749153 0.6608301103115082 0.6601972207427025 0.6684557944536209
          0.677461065351963 0.6825101673603058 0.6794425025582314 0.6752567812800407 0.6707060784101486 0.6635037064552307
          0.6602837182581425 0.6627421602606773 0.6674687527120113 0.6731587275862694 0.6792038157582283 0.6832845434546471
          0.6849844008684158 0.6830612681806087 0.6776818074285984 0.6747225932776928 0.6739552542567253 0.6722146272659302
          0.6718579456210136 0.6715178564190865 0.6695827543735504 0.6640380993485451 0.6628006845712662 0.6644680947065353
          0.6669686734676361 0.6697496324777603 0.6748802438378334 0.6784882992506027 0.6811484694480896 0.6865355968475342
          0.6995843276381493 0.713978722691536 0.722984105348587 0.7378860265016556 0.7467632740736008 0.7511785551905632
          0.7447185292840004 0.7308147698640823 0.720460057258606 0.7158510982990265 0.7140641808509827 0.7085332795977592
          0.7007530108094215 0.6906102374196053 0.6832927539944649 0.6937535032629967 0.7050013169646263 0.7093108370900154
          0.7011559382081032 0.6792320981621742 0.6799391955137253 0.6616908609867096 0.6625941768288612 0.6696128100156784
          0.6804451942443848 0.6743084788322449 0.6648121103644371 0.6497094556689262 0.6355007439851761 0.6346177011728287
          0.625065766274929 0.6362275332212448 0.6393100097775459 0.6422924846410751 0.6668089330196381 0.663893386721611
          0.6616386622190475 0.6620143204927444 0.6723555773496628 0.7072412520647049 0.7113141492009163 0.6965037137269974
          0.6706656068563461 0.6575121209025383 0.6671008691191673 0.6805768236517906 0.6753621101379395 0.6936068087816238
          0.6995627731084824 0.6995802372694016 0.6904450356960297 0.6905067041516304 0.6897354498505592 0.6875223144888878
          0.6843524649739265 0.6805198937654495 0.6770225539803505 0.6742026954889297 0.6710635796189308 0.6703244149684906
          0.6695637330412865 0.668224886059761 0.6661854535341263 0.6662139147520065 0.6691546440124512 0.6736343577504158
          0.6706167683005333 0.6677868738770485 0.6682589277625084 0.6734927222132683 0.6817685663700104 0.6859525144100189
          0.6846378073096275 0.6821283549070358 0.6804635748267174 0.6777406334877014 0.6731886491179466 0.6699111051857471
          0.6725005321204662 0.6786480695009232 0.6841514557600021 0.6880506724119186 0.6899471916258335 0.6859015300869942
          0.6814797446131706 0.6797650046646595 0.6786113083362579 0.677250549197197 0.676209069788456 0.6732326000928879
          0.6658586636185646 0.6635918319225311 0.6691259816288948 0.6705014929175377 0.6721729189157486 0.6788924187421799
          0.6848405078053474 0.6897604018449783 0.695728100836277 0.708160437643528 0.7282453179359436 0.7275494337081909
          0.7387650310993195 0.7507124915719032 0.7476955875754356 0.7477047517895699 0.7406270876526833 0.7323033437132835
          0.727850005030632 0.7230738028883934 0.7153624892234802 0.7086453959345818 0.7156862914562225 0.7162844687700272
          0.7061918824911118 0.7104491218924522 0.7373588532209396 0.7478427737951279 0.7229929193854332 0.6894486397504807
          0.6782114878296852 0.6719896271824837 0.6761482059955597 0.6790334284305573 0.687726579606533 0.661764845252037
          0.6617875844240189 0.6677234247326851 0.6595777198672295 0.6604543030261993 0.6553406119346619 0.6510368585586548
          0.6538267508149147 0.6561228930950165 0.6737686693668365 0.6786453127861023 0.6596971154212952 0.6873529180884361
          0.6995925828814507 0.709294393658638 0.7067850828170776 0.6735947504639626 0.6653488203883171 0.6595906689763069
          0.6679960042238235 0.6797758936882019 0.6913215965032578 0.7153622508049011 0.7089869678020477 0.7079756855964661
          0.6898628026247025 0.6897258460521698 0.6891853958368301 0.6863942295312881 0.6824589595198631 0.6781693696975708
          0.6737332493066788 0.6711138412356377 0.6681965291500092 0.6664390936493874 0.6670436784625053 0.6676657944917679
          0.6666961684823036 0.6676521301269531 0.6727756634354591 0.6797901913523674 0.6823843270540237 0.6846023499965668
          0.6834637224674225 0.6837369352579117 0.6883366405963898 0.6900190934538841 0.6887040883302689 0.6880082041025162
          0.6893066614866257 0.6895686648786068 0.6846833005547523 0.6811234727501869 0.6839871220290661 0.688642755150795
          0.6935121826827526 0.6962399296462536 0.6923750787973404 0.6883370131254196 0.6855425983667374 0.6862870752811432
          0.6884767189621925 0.6861635595560074 0.6822961717844009 0.6776032596826553 0.674310352653265 0.6736525446176529
          0.6739904955029488 0.674277663230896 0.6806688755750656 0.6884960681200027 0.6957637369632721 0.7105215191841125
          0.7214453220367432 0.7373395040631294 0.7371246293187141 0.7442096099257469 0.7444812133908272 0.7344032973051071
          0.7329850569367409 0.7355263605713844 0.7447515651583672 0.7420247048139572 0.7324553765356541 0.7280471511185169
          0.7181331850588322 0.7124318480491638 0.7227780371904373 0.7135724946856499 0.7252888306975365 0.7390123456716537
          0.7770866826176643 0.7438181564211845 0.718148447573185 0.7109122350811958 0.6961987987160683 0.6882142275571823
          0.685570128262043 0.6723925694823265 0.6767803132534027 0.6706264615058899 0.6708734706044197 0.6746366620063782
          0.6801619380712509 0.6925317645072937 0.6804643273353577 0.6708056181669235 0.6736467778682709 0.680445097386837
          0.6929319426417351 0.670264758169651 0.6720823794603348 0.7057872787117958 0.7048624753952026 0.7054175511002541
          0.694713868200779 0.6696586608886719 0.6703414767980576 0.6769425272941589 0.6721480563282967 0.6952721104025841
          0.7054825499653816 0.7159181460738182 0.6995740160346031 0.69487464427948 0.6888541579246521 0.6886970475316048
          0.6883739903569221 0.6848612576723099 0.6804737374186516 0.6747905611991882 0.6696346998214722 0.6662351414561272
          0.6647327244281769 0.6654606312513351 0.667457289993763 0.6701364815235138 0.6709713563323021 0.6742048040032387
          0.6826837882399559 0.6911675930023193 0.697543703019619 0.6999941021203995 0.6990737020969391 0.6972591057419777
          0.6977874040603638 0.6960359513759613 0.6942100673913956 0.694108858704567 0.6965413093566895 0.698624275624752
          0.6955403871834278 0.6942462921142578 0.6978373751044273 0.7030315771698952 0.7035078629851341 0.6999564655125141
          0.6963868141174316 0.692341074347496 0.6903541684150696 0.694303847849369 0.6996081918478012 0.7006913982331753
          0.6988271400332451 0.6959360726177692 0.6873596645891666 0.6790155544877052 0.6770044192671776 0.682428389787674
          0.6903810389339924 0.7008103504776955 0.7112051099538803 0.7243253737688065 0.752534307539463 0.7497606351971626
          0.7407047748565674 0.7308238968253136 0.7220025360584259 0.7153046429157257 0.7106495425105095 0.7342727929353714
          0.7395841479301453 0.7362714037299156 0.7345261052250862 0.7357074059545994 0.7202474288642406 0.7051819264888763
          0.7008328512310982 0.7148511707782745 0.7493055611848831 0.7450632601976395 0.7662344425916672 0.7624265030026436
          0.7329522222280502 0.7403731718659401 0.7209431827068329 0.7093671411275864 0.6894937306642532 0.6771501675248146
          0.6781928464770317 0.689809650182724 0.6979388669133186 0.7156086340546608 0.7224682942032814 0.7331366613507271
          0.7069277614355087 0.690814658999443 0.6894833371043205 0.6873444840312004 0.6828972473740578 0.6680810377001762
          0.6612185165286064 0.6750234067440033 0.682658240199089 0.6832316741347313 0.6746077314019203 0.666785791516304
          0.6638580560684204 0.6747799292206764 0.6810223534703255 0.6954964697360992 0.6967922002077103 0.7015730291604996
          0.6955925077199936 0.6835771054029465 0.6879604160785675 0.6877505704760551 0.6871215775609016 0.6838604360818863
          0.6783004552125931 0.6711662635207176 0.6656188145279884 0.6609904542565346 0.6597709432244301 0.6630227416753769
          0.6683868616819382 0.6745054647326469 0.6780495122075081 0.6841882467269897 0.6950308084487915 0.705732174217701
          0.7116542384028435 0.7140220925211906 0.7151575684547424 0.7132379487156868 0.7109449282288551 0.7079528793692589
          0.7058150470256805 0.7050809562206268 0.705083355307579 0.7057258524000645 0.7064657174050808 0.7128214351832867
          0.7206788659095764 0.7210018411278725 0.7119054310023785 0.7023137919604778 0.700371902436018 0.6972258388996124
          0.696401085704565 0.7020954377949238 0.7105322778224945 0.7160129025578499 0.7160870619118214 0.7076274529099464