<VTKFile type="PolyData" version="1.0" byte_order="LittleEndian" header_type="UInt64">
  <PolyData>
    <Piece NumberOfPoints="10000" NumberOfVerts="0" NumberOfLines="0" NumberOfStrips="0" NumberOfPolys="9801">
      <PointData>
        <DataArray type="Float32" Name="zvalue" NumberOfComponents="1" format="ascii" RangeMin="0.41788021780666895" RangeMax="2.986936032772064">
          0.9251563809812069 0.9455877840518951 0.966644674539566 0.9882996529340744 1.0088791623711586 1.0281814187765121
          1.049620270729065 1.0764062404632568 1.1067394614219666 1.1378922276198864 1.1706711575388908 1.2048399187624454
          1.2392303943634033 1.2756519168615341 1.3142196089029312 1.3538507744669914 1.3938965201377869 1.4314208030700684
          1.4639698937535286 1.4920459166169167 1.5181362889707088 1.5429483763873577 1.5687070228159428 1.5960221886634827
          1.6202152520418167 1.6406292133033276 1.6573855765163898 1.6705661453306675 1.6809198707342148 1.6890543662011623
          1.695638082921505 1.7003033012151718 1.7025263905525208 1.7047861143946648 1.706736445426941 1.705687165260315
          1.7017624005675316 1.6996190175414085 1.7023360878229141 1.7087812721729279 1.7197145223617554 1.7393700331449509
          1.749176636338234 1.7514391466975212 1.7514971122145653 1.7487615570425987 1.7414151281118393 1.727465383708477
          1.7087465301156044 1.696541704237461 1.6948845908045769 1.7082251608371735 1.7181563451886177 1.688623622059822
          1.6654106751084328 1.6795906201004982 1.707513116300106 1.7083496153354645 1.7043269574642181 1.6999355256557465
          1.695497639477253 1.6995638385415077 1.6856339424848557 1.6823001056909561 1.6822106167674065 1.7126251757144928
          1.767899937927723 1.7295783385634422 1.7264339625835419 1.7212935090065002 1.5800816714763641 1.5753616020083427
          1.7034747377038002 1.6296439096331596 1.678149662911892 1.6734296157956123 1.59382264316082 1.6553101725876331
          1.6031498693628237 1.5198532100766897 1.5180249440018088 1.615070901811123 1.626051425933838 1.5289599522948265
          1.4793936684727669 1.578813575208187 1.6137633472681046 1.616138819605112 1.547546535730362 1.4597372114658356
          1.5860460326075554 1.653201512992382 1.7919178009033203 1.8004384115338326 1.9132099226117134 1.8732472285628319
          2.004330798983574 2.06337907910347 2.0463776737451553 2.0381677746772766 0.9093317799270153 0.9281450435519218
          0.9472738429903984 0.9657434746623039 0.9819596670567989 0.9983796626329422 1.017948754131794 1.0422780886292458
          1.070676475763321 1.1000372990965843 1.1311845481395721 1.1642484366893768 1.1991880014538765 1.2365267984569073
          1.27633972838521 1.3184044696390629 1.3615503013134003 1.4026990160346031 1.438244353979826 1.4693211503326893
          1.4962516464293003 1.5198302306234837 1.5447194688022137 1.575466476380825 1.6069432757794857 1.6336344741284847
          1.653130017220974 1.6668488904833794 1.676059551537037 1.6822744868695736 1.6875608190894127 1.6919280290603638
          1.694576233625412 1.6991287544369698 1.703506000339985 1.701758436858654 1.698693498969078 1.6983024179935455
          1.701968640089035 1.7090255990624428 1.7237120121717453 1.7427225038409233 1.752701036632061 1.7549140453338623
          1.7541291490197182 1.7503989860415459 1.7421589270234108 1.7245224714279175 1.710144743323326 1.7033290416002274
          1.7088416442275047 1.7242853343486786 1.7233640775084496 1.702760972082615 1.6930717825889587 1.6999850571155548
          1.7132229432463646 1.7151458784937859 1.709158979356289 1.7595906183123589 1.7000888586044312 1.6949634552001953
          1.6899799183011055 1.6872892826795578 1.6842993423342705 1.6937636956572533 1.7614713460206985 1.7734506279230118
          1.7296180725097656 1.6584160178899765 1.5831847563385963 1.6456649005413055 1.7014395371079445 1.6865101382136345
          1.659133642911911 1.616827942430973 1.5946888327598572 1.7069802433252335 1.5712141006952152 1.4183417919557542
          1.5156771913170815 1.5618838227819651 1.4775011539459229 1.46286441385746 1.4919463768601418 1.529522493481636
          1.5581660866737366 1.5534958392381668 1.4923202097415924 1.6149801835417747 1.7552730292081833 1.8607655689120293
          1.9196471124887466 1.9345767349004745 2.076973646879196 2.0117237716913223 2.081248700618744 2.147747650742531
          2.0769409239292145 1.9929443448781967 0.8934385925531387 0.9106247536838055 0.9267549216747284 0.9421039707958698
          0.9568289667367935 0.9726113751530647 0.9924808666110039 1.0156428813934326 1.0419491119682789 1.0686748586595058
          1.09591693431139 1.1262858770787716 1.1596834100782871 1.1961111091077328 1.2365183010697365 1.2804944030940533
          1.3260539844632149 1.3698027208447456 1.4074959941208363 1.4414383210241795 1.471278578042984 1.4977542385458946
          1.5249364152550697 1.5547129288315773 1.586924634873867 1.6167323477566242 1.637811403721571 1.6526063308119774
          1.6631311923265457 1.6701516471803188 1.675485722720623 1.680999994277954 1.6881823390722275 1.6957771182060242
          1.6988983452320099 1.697802685201168 1.6970038637518883 1.696694664657116 1.699491798877716 1.7061107158660889
          1.7249234393239021 1.7431809231638908 1.7529980316758156 1.7563728913664818 1.7555060610175133 1.7526468336582184
          1.7446231916546822 1.7292178720235825 1.7120458111166954 1.7142599672079086 1.7272961735725403 1.735302858054638
          1.72767174243927 1.7128544971346855 1.7081910371780396 1.7127325236797333 1.7154530584812164 1.7160625085234642
          1.7554962933063507 1.709684781730175 1.7045824229717255 1.6994101479649544 1.6952948197722435 1.692593090236187
          1.6885847970843315 1.748823620378971 1.758801743388176 1.7730193436145782 1.7321128398180008 1.591977022588253
          1.6544515118002892 1.6700173020362854 1.7585663869976997 1.6817308887839317 1.6704252511262894 1.6033959165215492
          1.678226262331009 1.615330547094345 1.5309399649268016 1.4932964704930782 1.4862939696758986 1.397865458857268
          1.4056836757808924 1.4659936726093292 1.504008136689663 1.5284256339073181 1.5972877368330956 1.5829350277781487
          1.5663069859147072 1.7414081320166588 1.9965352192521095 1.861050508916378 2.002740278840065 2.0586955547332764
          2.053655907511711 2.1204767674207687 2.111548602581024 2.029195785522461 1.962178036570549 1.9774043783545494
          0.8758871480822563 0.8910789489746094 0.9063084572553635 0.9221818558871746 0.9371678344905376 0.9537795968353748
          0.9740236327052116 0.9971155598759651 1.0200885906815529 1.043179888278246 1.0676722191274166 1.0949479900300503
          1.125566154718399 1.1601736135780811 1.1999979577958584 1.2437486574053764 1.289983056485653 1.3333081305027008
          1.373978402465582 1.41287512332201 1.448739916086197 1.481658674776554 1.5118469037115574 1.538790449500084
          1.5639949589967728 1.5874661356210709 1.6072773970663548 1.6215290017426014 1.6322562545537949 1.6475247368216515
          1.6622674092650414 1.6727957800030708 1.680489718914032 1.6857687532901764 1.6890460848808289 1.6905678063631058
          1.6903341487050056 1.6883358657360077 1.6903333961963654 1.700051136314869 1.7231117337942123 1.7436179593205452
          1.7538074180483818 1.7500605508685112 1.7471878826618195 1.7591006085276604 1.7538050413131714 1.743831180036068
          1.7269942536950111 1.7222455367445946 1.740910291671753 1.7424955293536186 1.7308746129274368 1.7196406871080399
          1.7197092100977898 1.7165719121694565 1.7076544985175133 1.7150510475039482 1.7185512334108353 1.714956670999527
          1.7095054164528847 1.7046713829040527 1.7012457251548767 1.696744404733181 1.753091923892498 1.7538821920752525
          1.7603497505187988 1.784985400736332 1.7512964755296707 1.7083198353648186 1.7094269022345543 1.6950452104210854
          1.805731438100338 1.6670734658837318 1.6417251154780388 1.6803051456809044 1.6074753254652023 1.5997718051075935
          1.523950708215125 1.5489098549587652 1.395073588239029 1.3981021279469132 1.3998818388208747 1.3964699623174965
          1.4414423727430403 1.6116244047880173 1.6352089419960976 1.6871511489152908 1.8292753994464874 1.881643258035183
          1.8960320055484772 1.890760637819767 1.9414086639881134 1.987513691186905 1.9822411090135574 2.037663698196411
          1.953812688589096 1.996590569615364 2.032703086733818 2.0145625919103622 0.8600010126829147 0.8737001977860928
          0.8892887756228447 0.905993390828371 0.9215707816183567 0.9398223645985126 0.9620008431375027 0.9858234897255898
          1.0058445669710636 1.0245053470134735 1.046036347746849 1.070498701184988 1.098271045833826 1.1305787600576878
          1.1687599830329418 1.2119373641908169 1.255500666797161 1.2987228147685528 1.3421269282698631 1.38598807528615
          1.4292987361550331 1.4678427316248417 1.4962527193129063 1.5175569280982018 1.5379763953387737 1.5570915900170803
          1.5741445794701576 1.5884891524910927 1.6024280041456223 1.6248095855116844 1.6465019434690475 1.655693955719471
          1.6590388491749763 1.6599594056606293 1.664753295481205 1.6696214750409126 1.6723859459161758 1.6778267920017242
          1.6888380721211433 1.7089327201247215 1.7360002845525742 1.755047231912613 1.7497879192233086 1.7329180836677551
          1.729075662791729 1.7700771987438202 1.7783957049250603 1.7733177170157433 1.745762251317501 1.7334537580609322
          1.7417735904455185 1.7458302527666092 1.7347077429294586 1.7265873923897743 1.7236498221755028 1.712181307375431
          1.7099141106009483 1.7129139751195908 1.734034225344658 1.7189691737294197 1.715254120528698 1.710543416440487
          1.6985822021961212 1.7610856592655182 1.8271261975169182 1.820672295987606 1.908025473356247 1.8607102632522583
          1.8544558733701706 1.7756381183862686 1.7692620307207108 1.8313391506671906 1.8637082278728485 1.6739341244101524
          1.688702329993248 1.6199801042675972 1.609086163341999 1.6024850755929947 1.5126628947909921 1.462004981469363
          1.4614070602692664 1.4728728127665818 1.434360172599554 1.530817024409771 1.6523123532533646 1.6717111766338348
          1.6487443372607231 1.8933536112308502 1.8289853557944298 1.86300228536129 1.8789726942777634 1.9167829900979996
          1.9715675562620163 2.0432672798633575 2.039624199271202 2.03535658121109 1.985259398818016 2.0796062350273132
          1.9829182401299477 1.9631516635417938 0.8496878407895565 0.8613360561430454 0.876557357609272 0.8927236646413803
          0.9098188579082489 0.9327536784112453 0.9574715159833431 0.980146512389183 0.9986932426691055 1.014627330005169
          1.0316667929291725 1.052573587745428 1.0770066753029823 1.106469701975584 1.142800945788622 1.183995321393013
          1.226668443530798 1.2710332050919533 1.315322883427143 1.3630477711558342 1.4136016219854355 1.4554990716278553
          1.4796511009335518 1.4941370114684105 1.5094300843775272 1.5245821885764599 1.5394425690174103 1.5565015450119972
          1.5780800431966782 1.6072493940591812 1.6269333139061928 1.627567633986473 1.6223655864596367 1.6207507848739624
          1.6309984624385834 1.648078091442585 1.6539166793227196 1.6638996228575706 1.681687854230404 1.7035165578126907
          1.7271654307842255 1.7520117089152336 1.7363869920372963 1.7330286875367165 1.7539062276482582 1.7979849204421043
          1.800781100988388 1.7861203998327255 1.748157151043415 1.7346907556056976 1.7387833967804909 1.7467080056667328
          1.7407535538077354 1.7341147735714912 1.726192981004715 1.7237282916903496 1.7161761596798897 1.7314233034849167
          1.7723809033632278 1.7218596786260605 1.7213718816637993 1.7133771777153015 1.7716302573680878 1.838536337018013
          1.8326673954725266 1.8455912619829178 1.8574885725975037 1.8355906903743744 1.8237325102090836 1.7417961210012436
          1.7649708092212677 1.8526709079742432 1.749351605772972 1.8089650720357895 1.6633144989609718 1.624029964208603
          1.6141736060380936 1.602001577615738 1.5435429346980527 1.4478784435195848 1.522144091897644 1.5209632986225188
          1.6626716256141663 1.6011369153857231 1.5901669263839722 1.643406681716442 1.7062028795480728 1.6295891627669334
          1.6246322765946388 1.8166828528046608 1.9281433075666428 2.018026500940323 2.0693894624710083 2.076438009738922
          2.061943620443344 2.129141166806221 2.1094271689653397 1.9506993293762207 1.9275147169828415 2.0854457169771194
          0.8470464088022709 0.8575725965201855 0.8711975589394569 0.885954711586237 0.9046417437493801 0.9302716590464115
          0.9569764845073223 0.978654284030199 0.9974886886775494 1.0135946236550808 1.0269669257104397 1.042725745588541
          1.06267661601305 1.0888005085289478 1.1219165995717049 1.1611807830631733 1.2054824121296406 1.2520323060452938
          1.2992796562612057 1.3496315106749535 1.399637296795845 1.4352185502648354 1.45260389149189 1.4679701030254364
          1.4840558469295502 1.4980113953351974 1.5110537707805634 1.5289613977074623 1.5554570853710175 1.5868508741259575
          1.5912248939275742 1.5781419947743416 1.5727930441498756 1.576975792646408 1.590530440211296 1.6063176691532135
          1.6231862604618073 1.6477568745613098 1.6706898510456085 1.6896410211920738 1.7339021936058998 1.7365536838769913
          1.7322766557335854 1.7468803077936172 1.7684691101312637 1.7910109087824821 1.7899098545312881 1.762213371694088
          1.740937702357769 1.7365619465708733 1.7457240968942642 1.7525745257735252 1.7499369159340858 1.7466434091329575
          1.746466003358364 1.7352205514907837 1.7188220247626305 1.7492115497589111 1.7642019018530846 1.7276341542601585
          1.7260509505867958 1.7840271145105362 1.8165023624897003 1.8374618887901306 1.8300081491470337 1.8587974905967712
          1.7977582514286041 1.740821547806263 1.738377332687378 1.660218708217144 1.7273981124162674 1.87675841152668
          1.790688768029213 1.7063627541065216 1.7249019593000412 1.5891495570540428 1.5969249159097672 1.5516336187720299
          1.5248933855909854 1.4629856093088165 1.5326864931266755 1.6812644079327583 1.6732940897345543 1.5846566185355186
          1.5214515030384064 1.5230489745736122 1.650571383535862 1.5727581232786179 1.6889982596039772 1.8881676495075226
          1.993199035525322 2.0734085142612457 2.076019987463951 2.1430963277816772 2.194413334131241 2.1174878031015396
          1.958638995885849 1.8161730468273163 1.942466825246811 1.9798339307308197 0.851437758654356 0.8616967052221298
          0.8715707659721375 0.8862449415028095 0.9060881249606609 0.9310917891561985 0.9594151116907597 0.9824613109230995
          1.0012975335121155 1.0192130133509636 1.0326084531843662 1.0436873845756054 1.0568279549479485 1.0774045884609222
          1.1073512211441994 1.146867223083973 1.1936452127993107 1.2403660863637924 1.2850496768951416 1.3288115188479424
          1.3725947886705399 1.4052688628435135 1.429622232913971 1.4474593698978424 1.460573635995388 1.4722199738025665
          1.484286591410637 1.5023570507764816 1.5295114815235138 1.547604113817215 1.5274220034480095 1.531571127474308
          1.5402171611785889 1.548510767519474 1.5582564920186996 1.5725418254733086 1.5961491391062737 1.6267023980617523
          1.6444852352142334 1.6855425909161568 1.719081535935402 1.709848627448082 1.7185966148972511 1.735159546136856
          1.7641717493534088 1.7828598320484161 1.7710089832544327 1.7365183234214783 1.7361500188708305 1.7440926358103752
          1.750498205423355 1.698866829276085 1.688921220600605 1.688985526561737 1.7211080268025398 1.7345217391848564
          1.715988077223301 1.7343080416321754 1.7453354597091675 1.7529080137610435 1.7759834006428719 1.7937848046422005
          1.7836645543575287 1.7926621437072754 1.7619090601801872 1.7996259406208992 1.8093353882431984 1.7461101040244102
          1.744397148489952 1.7412918657064438 1.7107941135764122 1.8532406985759735 1.7670742869377136 1.6717422157526016
          1.6578869968652725 1.626230850815773 1.5936435237526894 1.5483454300556332 1.5987868912052363 1.7073718719184399
          1.7400865289382637 1.7384742721915245 1.720910720527172 1.5767333433032036 1.523517593741417 1.6462414413690567
          1.6185385957360268 1.697657585144043 1.8977388739585876 2.064817041158676 2.08211587369442 2.012513190507889
          2.1210940927267075 2.1471909284591675 2.04616941511631 1.9739577174186707 1.88333460688591 1.8800623565912247
          2.021030843257904 2.0428901612758636 0.8639340028166771 0.8687169998884201 0.8766289725899696 0.8923587761819363
          0.9136985801160336 0.9374715723097324 0.9653439074754715 0.9910572357475758 1.0102671794593334 1.027212928980589
          1.0434037931263447 1.052658822387457 1.0592441335320473 1.0755781568586826 1.1039897873997688 1.1421046294271946
          1.1841021440923214 1.2270551398396492 1.2678178548812866 1.3076004832983017 1.3497704565525055 1.3892045468091965
          1.413448229432106 1.42662213742733 1.434646725654602 1.4420000612735748 1.456218607723713 1.4775259792804718
          1.502351202070713 1.4945135191082954 1.4883341789245605 1.5033647194504738 1.5092379376292229 1.5150487497448921
          1.524668239057064 1.5424678921699524 1.5701009631156921 1.584706887602806 1.6115677207708359 1.6534034460783005
          1.6695511639118195 1.6841661855578423 1.7010726258158684 1.721128635108471 1.7380197644233704 1.773332104086876
          1.7517559453845024 1.7196422442793846 1.7279570177197456 1.74115389585495 1.7206961661577225 1.6936160996556282
          1.6918417438864708 1.6869963631033897 1.6714462861418724 1.6483607590198517 1.6838269457221031 1.6616153493523598
          1.6933895573019981 1.7695735841989517 1.8066159263253212 1.8164626583456993 1.78238183259964 1.7720956429839134
          1.766036868095398 1.8137011602520943 1.814843401312828 1.8183486685156822 1.8214068338274956 1.8407896384596825
          1.822236880660057 1.818254441022873 1.7480712085962296 1.6708634793758392 1.6299513578414917 1.7012474536895752
          1.7784829139709473 1.7190601341426373 1.6452692747116089 1.799423947930336 1.753025844693184 1.7305657640099525
          1.6538840904831886 1.653717689216137 1.6454213187098503 1.6399380713701248 1.8032363280653954 1.8977417200803757
          1.999796211719513 2.0133828073740005 2.0769282430410385 1.9909221231937408 1.97470523416996 1.8874390870332718
          1.9465899765491486 1.9317426085472107 1.9754051715135574 2.068709522485733 2.08767069876194 2.028482958674431
          0.8858879953622818 0.8835762850940228 0.8897257745265961 0.9054880179464817 0.9264427646994591 0.9494161270558834
          0.9737502448260784 1.0005833357572556 1.0217712000012398 1.0379784554243088 1.0537719763815403 1.066094871610403
          1.071978636085987 1.0856034681200981 1.109298799186945 1.139497235417366 1.1773520484566689 1.218546450138092
          1.2580852173268795 1.2994671538472176 1.3483106568455696 1.3818058669567108 1.3982237428426743 1.4061670377850533
          1.4077993407845497 1.4156661853194237 1.4384803473949432 1.4677440449595451 1.4823390692472458 1.4635040014982224
          1.4690054580569267 1.4743420034646988 1.4650389030575752 1.467519473284483 1.4822181388735771 1.5051790624856949
          1.519225999712944 1.5146258994936943 1.5386563837528229 1.5832945331931114 1.6196904480457306 1.6615280508995056
          1.6925063207745552 1.6856554821133614 1.670906737446785 1.7516885697841644 1.724605418741703 1.6909200176596642
          1.7045545801520348 1.7247709184885025 1.6673259288072586 1.6862294003367424 1.684260904788971 1.6720578372478485
          1.6372513696551323 1.5528985783457756 1.621185526251793 1.6655476987361908 1.6814636960625648 1.8212543651461601
          1.906470000743866 1.843680664896965 1.7842412814497948 1.7776756808161736 1.7734419107437134 1.86760725826025
          1.8658946007490158 1.8621714040637016 1.8607421293854713 1.7696995288133621 1.7462556809186935 1.6885152906179428
          1.6883556693792343 1.6868431270122528 1.658753678202629 1.8412257581949234 1.7473882734775543 1.7667515501379967
          1.822365716099739 1.8729537650942802 1.815936230123043 1.777603067457676 1.7163230702280998 1.783811904489994
          1.6906172409653664 1.7503324449062347 2.0196408182382584 2.031139701604843 2.0001364648342133 2.054527685046196
          1.9704596251249313 1.9619434922933578 1.924378216266632 1.8805020451545715 1.8661213144659996 1.9741219729185104
          2.030722916126251 2.001872405409813 2.1188139766454697 2.1202597469091415 0.9024999067187309 0.9096833504736423
          0.9168466851115227 0.9262993521988392 0.9431170709431171 0.9643411710858345 0.9853362552821636 1.0063301511108875
          1.0272290781140327 1.0441773794591427 1.0620481334626675 1.0807864554226398 1.092235278338194 1.100446231663227
          1.1169798523187637 1.143137402832508 1.1793062649667263 1.2194702439010143 1.261475495994091 1.3131581991910934
          1.3507507741451263 1.369155153632164 1.3813965916633606 1.3840593472123146 1.3852826356887817 1.401120401918888
          1.4377415925264359 1.473047599196434 1.4748181849718094 1.4624844267964363 1.4586288407444954 1.446877259761095
          1.4252501875162125 1.4146978259086609 1.4194228947162628 1.4264458790421486 1.4239031597971916 1.4322056025266647
          1.4891967251896858 1.5443661734461784 1.5813011974096298 1.619232602417469 1.6478604972362518 1.6400260627269745
          1.640549898147583 1.7227573245763779 1.6629582718014717 1.6181294471025467 1.6289465799927711 1.6394695937633514
          1.5892581567168236 1.6187400594353676 1.6069959923624992 1.5768141075968742 1.5890208631753922 1.5549718886613846
          1.6286747008562088 1.6618896201252937 1.6888388693332672 1.806627243757248 1.8564514815807343 1.7923037260770798
          1.7891534566879272 1.827039085328579 1.8966681137681007 1.8855013251304626 1.8799136877059937 1.874708279967308
          1.7836388498544693 1.781523808836937 1.706877514719963 1.7012751549482346 1.7671691924333572 1.7832828015089035
          1.7926966547966003 1.771544635295868 1.8972995728254318 1.8774680495262146 1.846785917878151 1.857689991593361
          1.7418626323342323 1.804340422153473 1.919604703783989 1.8238495662808418 1.7549318000674248 1.9357332587242126
          1.9772707968950272 1.998493805527687 2.1062262505292892 2.0676279067993164 2.03987505286932 1.9572773426771164
          1.870892010629177 1.8504839092493057 1.8654576689004898 1.9653168618679047 2.0404038429260254 2.058465301990509
          2.1721383929252625 2.0520966798067093 0.9075549580156803 0.9261755906045437 0.9439852759242058 0.9551005847752094
          0.9644714444875717 0.9774464964866638 0.9936481229960918 1.008195474743843 1.0246300511062145 1.0428113713860512
          1.0672447048127651 1.094964038580656 1.1136788055300713 1.1188412383198738 1.1294891647994518 1.1527488455176353
          1.188147772103548 1.230064332485199 1.2831675112247467 1.3236254528164864 1.340939149260521 1.354538232088089
          1.3614023551344872 1.3616702407598495 1.368726685643196 1.396461896598339 1.4430382028222084 1.4731137678027153
          1.4731498956680298 1.468882143497467 1.4496710523962975 1.4215929359197617 1.3898101784288883 1.3629310801625252
          1.3469976708292961 1.3397421538829803 1.3546554371714592 1.3826375342905521 1.4661690145730972 1.5179708078503609
          1.5478241667151451 1.5386178195476532 1.55463095754385 1.5996109396219254 1.6125971749424934 1.6347493529319763
          1.6131769344210625 1.5538988262414932 1.5380826443433762 1.5272968038916588 1.5511780828237534 1.5931040048599243
          1.5163879171013832 1.5267473980784416 1.522336795926094 1.4942134246230125 1.633748970925808 1.6475596353411674
          1.672281764447689 1.7827661633491516 1.6845310926437378 1.7503984197974205 1.7831747755408287 1.827074870467186
          1.9065905958414078 1.968881830573082 1.8662836253643036 1.6660387814044952 1.7836531102657318 1.7449145466089249
          1.6341086030006409 1.7783391773700714 1.7919659912586212 1.909781888127327 1.8600466698408127 1.819403424859047
          1.860926866531372 1.9461666345596313 1.913006253540516 1.946969211101532 1.9359984993934631 1.8707439452409744
          1.8364252746105194 1.9440257623791695 1.9482356160879135 2.1300026774406433 2.0864135921001434 2.137402132153511
          2.1295300275087357 2.0970041155815125 2.029213711619377 1.859794169664383 1.8391064777970314 1.893489956855774
          2.0954117253422737 2.118260659277439 2.176150768995285 2.1042802184820175 2.150425508618355 2.1509601324796677
          0.908572643995285 0.9293586425483227 0.9517690986394882 0.9713737219572067 0.98458157107234 0.9928572103381157
          1.0035055913031101 1.0109738670289516 1.0208658054471016 1.0434570088982582 1.078584372997284 1.110558319836855
          1.13216083496809 1.1383149698376656 1.1454796381294727 1.166743941605091 1.2022409439086914 1.252154029905796
          1.2931833490729332 1.3156452402472496 1.3284716606140137 1.3374397605657578 1.3374993279576302 1.3370235860347748
          1.352641187608242 1.389189399778843 1.4288236647844315 1.4487658217549324 1.4496506825089455 1.443122923374176
          1.4203854724764824 1.3954544551670551 1.3465377613902092 1.3243296220898628 1.3173725865781307 1.323908418416977
          1.3370769992470741 1.3617721050977707 1.4410572536289692 1.4536869749426842 1.441877268254757 1.4460594952106476
          1.4626172557473183 1.5345072112977505 1.5420415326952934 1.5724913962185383 1.5495328083634377 1.495278187096119
          1.46380165964365 1.5393738895654678 1.6716168448328972 1.622851125895977 1.5394673347473145 1.50277578830719
          1.4876619651913643 1.5399048700928688 1.5726364627480507 1.655447170138359 1.6884604915976524 1.7419091388583183
          1.6966652944684029 1.7245132476091385 1.82451431453228 1.9228384643793106 1.8683560490608215 1.7481868416070938
          1.7618436366319656 1.7358652204275131 1.7472101002931595 1.6873086839914322 1.700258955359459 1.797486498951912
          1.8686380982398987 1.87384232878685 1.915239855647087 1.983905628323555 2.0404693633317947 1.7677073031663895
          1.8527006283402443 1.8535063788294792 1.9520622715353966 1.9043774902820587 1.992702879011631 2.199687585234642
          2.1633302718400955 2.227819472551346 2.0800977051258087 2.1038275361061096 2.1028660982847214 2.026012495160103
          1.8840926587581635 1.7656896114349365 1.8240606933832169 2.056931585073471 2.1007930636405945 2.3485178500413895
          2.1807089745998383 2.216024726629257 2.2097873985767365 2.1821596026420593 0.9096711501479149 0.9282347112894058
          0.9503336176276207 0.97340377420187 0.9911594539880753 1.0027244091033936 1.0124317780137062 1.0183245316147804
          1.0227958373725414 1.0490785762667656 1.0914881117641926 1.1235618405044079 1.1436721310019493 1.1550694927573204
          1.1646213009953499 1.1879987642168999 1.224344179034233 1.25782909989357 1.2847347036004066 1.3039924651384354
          1.3119209185242653 1.3146998956799507 1.310138039290905 1.3095247372984886 1.3287621811032295 1.3616447150707245
          1.3937425315380096 1.4149205163121223 1.4216741845011711 1.4142443537712097 1.4070529416203499 1.3747174106538296
          1.3396463878452778 1.311044555157423 1.2900750525295734 1.2705761790275574 1.2394525948911905 1.2723908685147762
          1.3049359880387783 1.3957553505897522 1.400844857096672 1.3716012872755527 1.3726743962615728 1.3863471690565348
          1.4180275686085224 1.4887016750872135 1.4756753649562597 1.4583690874278545 1.47674360871315 1.5194475539028645
          1.6930830404162407 1.592458687722683 1.5581286773085594 1.5225520879030228 1.5757120847702026 1.5404198542237282
          1.6272504925727844 1.5616566389799118 1.6809677854180336 1.7907918840646744 1.788478933274746 1.780475214123726
          1.8296670615673065 1.673311933875084 1.667249634861946 1.6595896929502487 1.794334501028061 1.872536078095436
          1.8257721364498138 1.6755335927009583 1.7269738167524338 1.7133788019418716 1.7395281493663788 2.0002834796905518
          1.9512827098369598 2.00388103723526 2.1003021970391273 1.9307589530944824 2.013892389833927 1.943830356001854
          1.9908523634076118 2.033406086266041 2.139544852077961 2.2190767526626587 2.245726689696312 2.243419125676155
          2.237209066748619 2.1859204918146133 2.255248710513115 2.0752751380205154 1.88442312926054 1.7813590914011002
          1.9447095841169357 2.1464961618185043 2.226742774248123 2.259649410843849 2.219380185008049 2.2229149788618088
          2.2622742503881454 2.281879186630249 0.9051469154655933 0.9194842129945755 0.9368636347353458 0.9607360064983368
          0.9809499979019165 0.9963955134153366 1.0111221075057983 1.023913785815239 1.0340268909931183 1.05497569963336
          1.0989088229835033 1.1353289633989334 1.156873680651188 1.1732490807771683 1.1917346194386482 1.2159802615642548
          1.237787939608097 1.2583430111408234 1.2784477546811104 1.2897407934069633 1.2897860780358315 1.288127787411213
          1.2802051678299904 1.281455010175705 1.3018915876746178 1.333350032567978 1.3650825694203377 1.3808880299329758
          1.3886125311255455 1.412646658718586 1.3960305824875832 1.3512397892773151 1.3092734962701797 1.2719013318419456
          1.2387155499309301 1.2191435862332582 1.199011062271893 1.2413087906315923 1.2983059221878648 1.2948410529643297
          1.2728929743170738 1.2205551024526358 1.2183288764208555 1.2599072670564055 1.3093491792678833 1.3707845024764538
          1.429043285548687 1.502631552517414 1.5393168181180954 1.6145166233181953 1.6636782363057137 1.643731214106083