<VTKFile type="PolyData" version="1.0" byte_order="LittleEndian" header_type="UInt64">
  <PolyData>
    <Piece NumberOfPoints="10000" NumberOfVerts="0" NumberOfLines="0" NumberOfStrips="0" NumberOfPolys="9801">
      <PointData>
        <DataArray type="Float32" Name="zvalue" NumberOfComponents="1" format="ascii" RangeMin="0.47725546825677156" RangeMax="1.9541703164577484">
          1.0066314563155174 0.9842370897531509 0.9431903660297394 0.9037787914276123 0.8703056126832962 0.8483283072710037
          0.8183813393115997 0.7913716435432434 0.7549517601728439 0.7162638455629349 0.6982300207018852 0.6766277924180031
          0.6488203927874565 0.6267915703356266 0.6441946588456631 0.6352046057581902 0.6555038765072823 0.6849922761321068
          0.7002457119524479 0.7169270813465118 0.7222944609820843 0.7347668446600437 0.7597346343100071 0.7744640372693539
          0.8008081242442131 0.8333295732736588 0.8539424985647202 0.8721055537462234 0.8847194388508797 0.8951846584677696
          0.9068066850304604 0.912511445581913 0.912623904645443 0.9261967316269875 0.9391692951321602 0.9457045942544937
          0.9488718658685684 0.9570708572864532 0.9732039123773575 1.0157079249620438 1.0257367119193077 1.033885434269905
          1.0048137679696083 0.9964377209544182 1.0000842735171318 1.0155770182609558 1.0386782437562943 1.0482149124145508
          1.0525936484336853 1.0568773597478867 1.0614307075738907 1.065894827246666 1.0701425671577454 1.0742384195327759
          1.0783218815922737 1.0823505222797394 1.0862932950258255 1.0900846347212791 1.0937734991312027 1.0974264964461327
          1.1010173112154007 1.1045412421226501 1.1080463901162148 1.1114834547042847 1.1148367300629616 1.1181002408266068
          1.1212637275457382 1.1243287548422813 1.1272908598184586 1.1301662251353264 1.132946327328682 1.135627768933773
          1.1382148414850235 1.140709139406681 1.1430986374616623 1.1453660279512405 1.1475552394986153 1.1497004553675652
          1.1517850756645203 1.1538079902529716 1.1557825207710266 1.1577122807502747 1.1595973819494247 1.1614529713988304
          1.1632619202136993 1.165028154850006 1.1667562499642372 1.1684567406773567 1.1701176166534424 1.1718493476510048
          1.1740320101380348 1.1762213706970215 1.1031661629676819 1.143918201327324 1.4642625376582146 1.5810148864984512
          1.8113425225019455 1.4816435053944588 1.0548695549368858 0.9270888194441795 1.021194577217102 1.0021892935037613
          0.9774734452366829 0.9307813718914986 0.8898484259843826 0.8553459867835045 0.8323583975434303 0.8051829785108566
          0.7714078351855278 0.7308863401412964 0.69778261333704 0.6874536648392677 0.6613542065024376 0.6373165398836136
          0.6242561638355255 0.6513412967324257 0.6458681933581829 0.6861024461686611 0.7145364210009575 0.721241183578968
          0.726039607077837 0.7329933792352676 0.752290602773428 0.7769909352064133 0.8040208742022514 0.8301987051963806
          0.8500123918056488 0.8681516647338867 0.8828312233090401 0.8940972536802292 0.9039987772703171 0.9142995476722717
          0.9228376299142838 0.9274298474192619 0.9284229129552841 0.9109401255846024 0.9213256873190403 0.9310291893780231
          0.9390561357140541 0.9753771089017391 1.0217466205358505 1.022795282304287 0.986912414431572 0.9845107868313789
          0.9911254048347473 1.0019637569785118 1.0255773067474365 1.047909438610077 1.054169237613678 1.0582845136523247
          1.062899425625801 1.0674383863806725 1.071692444384098 1.0757957100868225 1.0798831582069397 1.08391535282135
          1.087870977818966 1.0916663259267807 1.0953930541872978 1.0990727618336678 1.1026797071099281 1.106263630092144
          1.1098087579011917 1.1132872626185417 1.1166740730404854 1.1199675723910332 1.1231518164277077 1.1262233704328537
          1.1292056441307068 1.1320883631706238 1.1348929777741432 1.137587696313858 1.1401854008436203 1.1426869854331017
          1.1450657397508621 1.1473099067807198 1.149484395980835 1.151622287929058 1.153684489428997 1.1556938588619232
          1.1576625555753708 1.1595933064818382 1.1615014299750328 1.1633774787187576 1.1652229577302933 1.1670464649796486
          1.1688555255532265 1.170609436929226 1.1728103309869766 1.1740454882383347 1.1763746216893196 1.1630741730332375
          1.1040711253881454 1.3129754588007927 1.557868406176567 1.7717338800430298 1.415764480829239 1.1832880079746246
          1.0238420441746712 1.0588668808341026 1.0348356515169144 1.0180435255169868 0.9958036616444588 0.9671003222465515
          0.9162982180714607 0.8749802261590958 0.8395289704203606 0.8159173801541328 0.7935399040579796 0.75018510222435
          0.7040643393993378 0.6857137978076935 0.6748036593198776 0.6513828933238983 0.6321381814777851 0.6555121280252934
          0.6474841944873333 0.6775726974010468 0.7112184725701809 0.726330827921629 0.7303267493844032 0.7342129945755005
          0.7476814836263657 0.7724338732659817 0.8014906048774719 0.8283729553222656 0.8483731523156166 0.8647627755999565
          0.8805507346987724 0.8932216614484787 0.9028724581003189 0.9124529585242271 0.9222481846809387 0.9298513308167458
          0.916684940457344 0.9187061786651611 0.9265933930873871 0.9344273135066032 0.9415684305131435 0.9773790314793587
          0.9770175069570541 1.004928708076477 0.9957953467965126 0.9817635491490364 0.9887983724474907 0.9978810846805573
          1.0117447152733803 1.040655441582203 1.0555376037955284 1.0598817318677902 1.0646224096417427 1.0691877752542496
          1.0734328404068947 1.0775279849767685 1.0816013813018799 1.0856295004487038 1.089589424431324 1.0933900699019432
          1.0971414521336555 1.1008390933275223 1.104481816291809 1.1081075072288513 1.1116902530193329 1.1152168959379196
          1.1186476722359657 1.1219892799854279 1.125193439424038 1.1282587498426437 1.1312471702694893 1.1341501101851463
          1.1369563937187195 1.139649510383606 1.142243653535843 1.144740030169487 1.1470941603183746 1.149311177432537
          1.1514660492539406 1.1535861566662788 1.1556365489959717 1.1576335951685905 1.159595087170601 1.1615393310785294
          1.1634670123457909 1.1653933599591255 1.1673589050769806 1.1693540439009666 1.17128686606884 1.174826830625534
          1.1751440912485123 1.119482859969139 1.1043284833431244 1.0473590902984142 1.13126090914011 1.4807384237647057
          1.7925939038395882 1.6434619426727295 1.3798708021640778 1.0561538115143776 1.0215776562690735 1.2426071800291538
          1.0547127351164818 1.0309703722596169 1.0121912360191345 0.9864590987563133 0.9522468522191048 0.9011805802583694
          0.8635236099362373 0.8256437554955482 0.8025703579187393 0.7748427614569664 0.7283218801021576 0.6875871270895004
          0.6780183389782906 0.6671895608305931 0.6494630426168442 0.6483129598200321 0.6611572131514549 0.6645120605826378
          0.712858010083437 0.7417383752763271 0.7351090498268604 0.7382681742310524 0.7467039786279202 0.7642324529588223
          0.7956460043787956 0.8228363916277885 0.8445809334516525 0.8608131036162376 0.8772309198975563 0.8910803869366646
          0.9014785140752792 0.9111398160457611 0.921173021197319 0.9300995618104935 0.9189126044511795 0.9219468384981155
          0.929907713085413 0.936847873032093 0.9434045068919659 0.9497647471725941 0.9747772328555584 0.9550804309546947
          1.0047487765550613 0.9812614023685455 0.9887899234890938 0.9966695085167885 1.0064789354801178 1.024550348520279
          1.0552854761481285 1.0617201253771782 1.0665094256401062 1.0710205510258675 1.0752739012241364 1.079392023384571
          1.0834522619843483 1.0874729380011559 1.0914175808429718 1.0952257961034775 1.0989910811185837 1.1027072817087173
          1.1064071357250214 1.1100741103291512 1.11370749771595 1.1172962859272957 1.1207937449216843 1.1241878792643547
          1.127411663532257 1.1304571107029915 1.1334450095891953 1.136349581182003 1.139152579009533 1.1418427303433418
          1.1444139778614044 1.1468795910477638 1.14919164031744 1.1513754650950432 1.1535004302859306 1.155593365430832
          1.1576362252235413 1.1596311032772064 1.161594420671463 1.163546197116375 1.1654972583055496 1.1674997583031654
          1.169626109302044 1.1719321385025978 1.1746192425489426 1.175731547176838 1.178419180214405 1.1614870950579643
          1.105028748512268 1.1086396500468254 1.3532756492495537 1.8983073383569717 1.7652130275964737 1.5357018411159515
          1.2036487087607384 0.9347710404545069 1.1142094694077969 1.2594291530549526 1.0733072608709335 1.0498868972063065
          1.0276573300361633 1.0057950541377068 0.9737837463617325 0.9307304322719574 0.8873594701290131 0.8532470613718033
          0.8156037107110023 0.7946026027202606 0.756696805357933 0.7088366970419884 0.6782228872179985 0.6749796271324158
          0.6692541465163231 0.6583416387438774 0.6760537922382355 0.6673158966004848 0.7046470567584038 0.7486417852342129
          0.7477324120700359 0.7435281202197075 0.7493654154241085 0.7628637105226517 0.7822718247771263 0.816355012357235
          0.8395476788282394 0.8559830188751221 0.8726504817605019 0.8875971287488937 0.8996579200029373 0.9089201912283897
          0.9196309298276901 0.9303227290511131 0.9249440804123878 0.9230971559882164 0.9308192729949951 0.9378634616732597
          0.9444776847958565 0.9515488520264626 0.980037160217762 0.9556395150721073 0.9632255509495735 0.9810005947947502
          0.989663764834404 0.9967789649963379 1.0045738369226456 1.0153309777379036 1.0496721640229225 1.0635532215237617
          1.06834264844656 1.0728711783885956 1.0772293880581856 1.0813930705189705 1.085438348352909 1.0894243195652962
          1.0933383256196976 1.0971572250127792 1.1009388491511345 1.1047049462795258 1.1084645241498947 1.1121955141425133
          1.1158917993307114 1.1195622608065605 1.1231484040617943 1.1265839338302612 1.1297998279333115 1.132840856909752
          1.135790504515171 1.138685829937458 1.1414984837174416 1.1442026421427727 1.1467563062906265 1.1491398513317108
          1.1513752415776253 1.1535134091973305 1.1555941328406334 1.157647766172886 1.1596820130944252 1.1616892367601395
          1.163669191300869 1.165628269314766 1.1675954535603523 1.1696368902921677 1.1724124997854233 1.1748144328594208
          1.1745954975485802 1.178957961499691 1.1633427664637566 1.105304792523384 1.1067090556025505 1.3181887343525887
          1.7797643691301346 1.8207792788743973 1.599657341837883 1.4095487967133522 1.0728652067482471 1.0914133228361607
          1.3995764069259167 1.1699823513627052 1.0880812853574753 1.0702040567994118 1.0443699210882187 1.0236065685749054
          0.9993219152092934 0.9592411369085312 0.9110315591096878 0.8764517679810524 0.8383757621049881 0.8024937286973
          0.771242082118988 0.7370632961392403 0.6898105069994926 0.6781853288412094 0.6826418712735176 0.6717133894562721
          0.6958352476358414 0.6855880245566368 0.6967780515551567 0.7451451197266579 0.7653355076909065 0.747363019734621
          0.7535663545131683 0.765852116048336 0.7796078622341156 0.8035174906253815 0.8341784477233887 0.850988395512104
          0.8673567026853561 0.8831772804260254 0.8964561522006989 0.9055538848042488 0.9160974845290184 0.9291091114282608
          0.9359832927584648 0.925712738186121 0.9312594830989838 0.9384747818112373 0.9453533887863159 0.952822607010603
          0.9903268180787563 0.9652186222374439 0.9605998620390892 0.9911242425441742 0.9899488314986229 0.9977312833070755
          1.0041629895567894 1.0123582631349564 1.0384934917092323 1.0647836923599243 1.0698252320289612 1.0746787190437317
          1.0793131962418556 1.0837543830275536 1.087785892188549 1.0915237069129944 1.0953738316893578 1.099208302795887
          1.1030247509479523 1.1068712398409843 1.110702283680439 1.1145077273249626 1.1182864010334015 1.1220351234078407
          1.1257130429148674 1.1291888654232025 1.1323754489421844 1.1353837847709656 1.1382649391889572 1.141152210533619
          1.1440133899450302 1.1467875614762306 1.1493650749325752 1.1516071632504463 1.1536904647946358 1.155747875571251
          1.157774418592453 1.1597721353173256 1.1617907136678696 1.1638419926166534 1.1658167615532875 1.1677804589271545
          1.1697601452469826 1.1731692478060722 1.1741888299584389 1.1772591173648834 1.1559594422578812 1.2227253913879395
          1.1646578311920166 1.1071715354919434 1.2731059193611145 1.5278199836611748 1.823704868555069 1.685094803571701
          1.6022990942001343 1.1259227581322193 1.0604078662581742 1.2868848480284214 1.2489550709724426 1.1220006123185158
          1.0992681086063385 1.085130013525486 1.0642639249563217 1.0377050265669823 1.016181342303753 0.9901745244860649
          0.9433373138308525 0.90313321352005 0.8622516170144081 0.8204925656318665 0.7851065397262573 0.7505720928311348
          0.7177967578172684 0.6873447000980377 0.6903569772839546 0.6962332800030708 0.6848372966051102 0.7077468857169151
          0.7040414623916149 0.7222952507436275 0.7690732777118683 0.7674871049821377 0.7560399807989597 0.7697886601090431
          0.7848058976233006 0.7943301387131214 0.8202311545610428 0.8468218743801117 0.8621109947562218 0.8782365843653679
          0.8914236649870872 0.9015224799513817 0.9107640236616135 0.9307629019021988 0.9389936104416847 0.9307092726230621
          0.9327002689242363 0.9391924291849136 0.9457461647689342 0.9530485533177853 0.9634042866528034 0.9970262199640274
          0.9653633125126362 0.9696704596281052 0.9827464818954468 0.9984277635812759 1.0047651305794716 1.0114672183990479
          1.031401053071022 1.0648993849754333 1.0705203413963318 1.0765565931797028 1.0852289572358131 1.097264088690281
          1.1036845594644547 1.0960620790719986 1.0975852608680725 1.101426713168621 1.1053256392478943 1.1092466711997986
          1.113154761493206 1.1170513331890106 1.120932050049305 1.124765045940876 1.1284933015704155 1.1319955438375473
          1.1351318806409836 1.1380654200911522 1.1408599019050598 1.143754966557026 1.1467293128371239 1.1496162116527557
          1.152287632226944 1.1544036120176315 1.1562363058328629 1.1581563502550125 1.1605381220579147 1.1621041670441628
          1.2014193460345268 1.1720680072903633 1.1680078729987144 1.1703399866819382 1.172588124871254 1.1738569661974907
          1.1763295754790306 1.1799992322921753 1.2111189514398575 1.166167102754116 1.10971999168396 1.1910599693655968
          1.3985497951507568 1.7886936366558075 1.768031284213066 1.540120154619217 1.2999939136207104 1.132400879636407
          1.2092432044446468 1.2383924834430218 1.1059563979506493 1.1240257322788239 1.114173747599125 1.0969174057245255
          1.0798101127147675 1.0560632422566414 1.02825266122818 1.006304532289505 0.9751248732209206 0.9332771152257919
          0.8891620859503746 0.8454736694693565 0.8034506142139435 0.7665672227740288 0.728254921734333 0.7015497386455536
          0.6911613456904888 0.7104589939117432 0.7086845189332962 0.7179756164550781 0.7146530151367188 0.7211062833666801
          0.7520352117717266 0.7810042276978493 0.7595795281231403 0.771544124931097 0.789325300604105 0.7993908412754536
          0.809538047760725 0.8292458318173885 0.8552494049072266 0.8736921697854996 0.8856260553002357 0.8957938402891159
          0.9042162820696831 0.9294195473194122 0.9379819631576538 0.9406651332974434 0.9365996420383453 0.9416422508656979
          0.9458877891302109 0.9529597833752632 0.9633821584284306 1.0098748058080673 0.9906218461692333 0.9741343259811401
          0.9594937339425087 0.9966582357883453 1.0056858882308006 1.0120177939534187 1.030451387166977 1.064319759607315
          1.067277006804943 1.0872109085321426 1.1091191172599792 1.1192687004804611 1.124327190220356 1.125528708100319
          1.1013353317975998 1.1038853973150253 1.1078702211380005 1.1118699684739113 1.115871824324131 1.1198796033859253
          1.1238682642579079 1.127775602042675 1.131488859653473 1.1349882408976555 1.1381899490952492 1.1417500004172325
          1.1442000642418861 1.1470327600836754 1.1502530500292778 1.152014508843422 1.153818093240261 1.157511830329895
          1.159168928861618 1.1801146045327187 1.204232506453991 1.2452642917633057 1.2073634415864944 1.2111018151044846
          1.1716084852814674 1.1723202615976334 1.1740781143307686 1.1766182854771614 1.1789704039692879 1.180997259914875
          1.1667706817388535 1.2118365690112114 1.195111334323883 1.3570185974240303 1.70468158274889 1.7328746542334557
          1.5705011188983917 1.5960005521774292 1.2406111247837543 1.302706018090248 1.1723899841308594 1.1062195897102356
          1.1828228756785393 1.18305092304945 1.1320489346981049 1.1115574687719345 1.0925362706184387 1.0712044388055801
          1.0453738272190094 1.0186274647712708 0.9945138022303581 0.9574723243713379 0.9227834567427635 0.8726456761360168
          0.8283796906471252 0.7846141383051872 0.7324482351541519 0.7112375423312187 0.6896011605858803 0.6992185600101948
          0.7179908007383347 0.7002740576863289 0.7143620476126671 0.7249260023236275 0.7303135246038437 0.7673575282096863
          0.7917893044650555 0.7712998613715172 0.7901793755590916 0.8048742227256298 0.8132175356149673 0.8289535045623779
          0.8457601144909859 0.8650612309575081 0.8770078420639038 0.8830334022641182 0.8975280225276947 0.8925381526350975
          0.9291833341121674 0.9475546926259995 0.9458527788519859 0.946934349834919 0.9470829702913761 0.9528811946511269
          0.9686099924147129 1.0087057538330555 1.0455087274312973 1.013465277850628 0.9925387501716614 0.9579188451170921
          1.0066605806350708 1.0145786926150322 1.0341304540634155 1.0650703087449074 1.0728250443935394 1.1062268689274788
          1.1177192777395248 1.1231920793652534 1.1278990507125854 1.1322603300213814 1.132359616458416 1.1067196279764175
          1.110680378973484 1.1147883981466293 1.118910826742649 1.1230425834655762 1.1271532401442528 1.131116658449173
          1.1348688751459122 1.1418585404753685 1.1617663502693176 1.1828780770301819 1.2159163132309914 1.234682023525238
          1.2261989936232567 1.1282885447144508 1.0882437378168106 1.1549706012010574 1.1756213828921318 1.2035163044929504
          1.1500518023967743 1.2502747848629951 1.2118539586663246 1.1884972378611565 1.1730341091752052 1.1747165471315384
          1.1774191111326218 1.1793093010783195 1.1805913522839546 1.1678410843014717 1.2101582661271095 1.1531796902418137
          1.2928629592061043 1.5601852089166641 1.7169423177838326 1.7480485141277313 1.4532750025391579 1.3499815054237843
          1.1647823406383395 1.2662690728902817 1.0904326662421227 1.125253900885582 1.1844903752207756 1.1440800428390503
          1.1473058238625526 1.129118151962757 1.1075017154216766 1.0858581364154816 1.0604545772075653 1.0366408005356789
          1.0087259337306023 0.9766130819916725 0.9456236362457275 0.9091254025697708 0.8583346679806709 0.8118708580732346
          0.7663408741354942 0.7087424248456955 0.6951659694314003 0.6922284290194511 0.7099003866314888 0.7055496722459793
          0.6995476894080639 0.7163763977587223 0.7381792590022087 0.7393147125840187 0.7817782238125801 0.7933812141418457
          0.7899611480534077 0.8045914806425571 0.8161050900816917 0.831124797463417 0.8485859110951424 0.8569465205073357
          0.8628916442394257 0.8662462458014488 0.8696837797760963 0.8851800337433815 0.8910728767514229 0.9212919920682907
          0.9571801498532295 0.9674599319696426 0.9515750780701637 0.9534211754798889 0.9719127453863621 1.0034214667975903
          1.05108280479908 1.05572122707963 1.0212570391595364 0.9822126626968384 0.9929565116763115 1.0233832076191902
          1.0244850665330887 1.0437336340546608 1.0661480873823166 1.0619763806462288 1.068801585584879 1.0957030430436134
          1.1305119395256042 1.1351237893104553 1.1395397633314133 1.1229234039783478 1.1136006712913513 1.1178572922945023
          1.1221584156155586 1.1265046894550323 1.130828134715557 1.135478675365448 1.1512704268097878 1.1763420179486275
          1.1831820756196976 1.2321242466568947 1.253886602818966 1.2784618958830833 1.2986803129315376 1.2055125907063484
          1.0781704261898994 1.1275154948234558 1.2054584696888924 1.1506468951702118 1.1925560049712658 1.2102538347244263
          1.215206854045391 1.1735161319375038 1.1757008507847786 1.1787002012133598 1.1804346516728401 1.1816474422812462
          1.1866225227713585 1.2125137373805046 1.153405450284481 1.1964608207345009 1.4070170149207115 1.7457483857870102
          1.6781220138072968 1.526923805475235 1.487784057855606 1.2466970100067556 1.3103747367858887 1.1914121210575104
          1.0515668764710426 1.128549125045538 1.2038735821843147 1.205213502049446 1.1634296998381615 1.143900029361248
          1.1240637600421906 1.1012126877903938 1.0760097205638885 1.0515366941690445 1.0281559079885483 0.9926785230636597
          0.9620987325906754 0.9337766394019127 0.8955913931131363 0.8441939800977707 0.7987615987658501 0.7515543848276138
          0.696545697748661 0.6867865324020386 0.7022799886763096 0.7108127325773239 0.6914938613772392 0.710494801402092
          0.7265861257910728 0.7408774197101593 0.7554267980158329 0.7924676425755024 0.7913278006017208 0.8029491156339645
          0.8129085339605808 0.8293979987502098 0.8481157496571541 0.8589793257415295 0.8637420907616615 0.8368351310491562
          0.8505495712161064 0.8826976716518402 0.890542209148407 0.903331808745861 0.9558419659733772 0.9791134670376778
          0.9802795723080635 0.9549925401806831 0.9615530222654343 0.982365645468235 1.006209958344698 1.0605005845427513
          1.0442343540489674 0.9863455891609192 0.9639361426234245 0.9773200564086437 1.0200854614377022 1.0437185689806938
          1.010146789252758 1.050587322562933 1.07066984847188 1.0760994032025337 1.1094640046358109 1.1546553522348404
          1.141882762312889 1.1447763592004776 1.1148442700505257 1.1189472302794456 1.1251011118292809 1.1372246146202087
          1.1517203524708748 1.1781290546059608 1.1992947980761528 1.1968307048082352 1.2175100073218346 1.2751625031232834
          1.30655038356781 1.3164709135890007 1.2408460080623627 1.263512760400772 1.1294380873441696 1.1491147577762604
          1.2070259004831314 1.1626162454485893 1.194185346364975 1.1952808499336243 1.1747276484966278 1.1761923134326935
          1.1783042028546333 1.1795951426029205 1.18086838722229 1.1834963634610176 1.1699350774288177 1.2125069722533226
          1.212386503815651 1.4268451482057571 1.7411915138363838 1.7652913630008698 1.6789664775133133 1.491881102323532
          1.4393339306116104 1.3510315380990505 1.369111143052578 1.1077792644500732 1.131830658763647 1.1464930772781372
          1.2070279866456985 1.2558014243841171 1.1830002591013908 1.1599132418632507 1.1397296711802483 1.1168295070528984
          1.0927366092801094 1.0649609863758087 1.0446673035621643 1.012661188840866 0.9787910431623459 0.9458350092172623
          0.9152407646179199 0.8797044456005096 0.8252239748835564 0.7812675014138222 0.7363941445946693 0.7104030251502991
          0.6869125813245773 0.7035423666238785 0.694536492228508 0.7114506177604198 0.7070916965603828 0.7466428875923157
          0.747689139097929 0.7778676971793175 0.7925973385572433 0.7982366643846035 0.8102658167481422 0.8195258527994156
          0.8410848006606102 0.8596545942127705 0.8653048537671566 0.8398017585277557 0.8512932509183884 0.8751815482974052
          0.8870291262865067 0.9043661132454872 0.9597758650779724 0.984768308699131 0.9909271970391273 0.9799858257174492
          0.9482024237513542 0.9553159549832344 0.9402504190802574 0.998668722808361 1.0254575125873089 1.0238881930708885
          0.9939544685184956 0.9584988541901112 1.0128473415970802 1.0072211623191833 0.9742272682487965 1.0185630172491074
          1.0508930087089539 1.0920248962938786 1.0967142842710018 1.1451053321361542 1.1476795673370361 1.1201547756791115
          1.1180981174111366 1.1140910759568214 1.1317242085933685 1.139405071735382 1.1776152402162552 1.2472699210047722
          1.2588256374001503 1.2614435330033302 1.3411352187395096 1.3916775062680244 1.3764157444238663 1.353826954960823
          1.2475308775901794 1.2938816025853157 1.270548239350319 1.2912579253315926 1.159927785396576 1.197691485285759
          1.1988105177879333 1.117748036980629 1.178631104528904 1.1793852970004082 1.1800612211227417 1.181394025683403
          1.1834329143166542 1.1271384805440903 1.1706327348947525 1.2151633948087692 1.301549568772316 1.5079538971185684
          1.7784402668476105 1.6320308148860931 1.5096894204616547 1.5941745191812515 1.3067262307740748 1.3712854459881783
          1.1632160767912865 1.1304399594664574 1.118153441697359 1.094182051718235 1.1341917365789413 1.1814896017313004
          1.208353467285633 1.181832067668438 1.1561995074152946 1.1353423669934273 1.1105424985289574 1.0855141505599022
          1.0561242178082466 1.031970277428627 0.9961075633764267 0.9651176109910011 0.930776558816433 0.8958757296204567
          0.8624182343482971 0.8018625900149345 0.7595649659633636 0.7238226979970932 0.6837088763713837 0.6853030920028687
          0.695875957608223 0.6953932270407677 0.7064775936305523 0.723053764551878 0.7679194621741772 0.7662343271076679
          0.7876496389508247 0.7896053269505501 0.8030121363699436 0.8125031962990761 0.8267594613134861 0.8582341745495796
          0.8550402000546455 0.8478459045290947 0.8577035740017891 0.8711374625563622 0.877661257982254 0.905282162129879
          0.9632277935743332 0.9909134209156036 1.0157373696565628 1.0527820140123367 0.9801754578948021 0.9792322553694248
          0.9418192617595196 0.9656933583319187 1.0189505368471146 1.0330876521766186 1.0074267610907555 0.9990667626261711
          0.9910405166447163 0.9989379197359085 0.9967674314975739 0.9837964661419392 1.0467844270169735 1.0656252466142178
          1.0996022373437881 1.1543923281133175 1.1333378963172436 1.1427067816257477 1.1671733185648918 1.1241688951849937
          1.1190120205283165 1.154880203306675 1.2008983865380287 1.1891158446669579 1.2126652225852013 1.236012227833271
          1.376561924815178 1.4393754377961159 1.481353297829628 1.336361587047577 1.2980138212442398 1.299448773264885
          1.2829836830496788 1.2365017533302307 1.2072739452123642 1.2501762583851814 1.1194267943501472 1.121054820716381
          1.1816120371222496 1.181505247950554 1.1822850033640862 1.1840822324156761 1.1875884756445885 1.182488702237606
          1.147437334060669 1.3056373596191406 1.3951603695750237 1.6428822726011276 1.5807576328516006 1.677474781870842
          1.7196517139673233 1.3765528425574303 1.4069340005517006 1.144893728196621 1.0910181179642677 1.1726809218525887
          1.1180651485919952 1.1775996461510658 1.1201226934790611 1.2329019829630852 1.238520048558712 1.2082861214876175
          1.181236855685711 1.1526482552289963 1.1295985355973244 1.1047817468643188 1.0796068236231804 1.0486707910895348
          1.0179678797721863 0.9828398898243904 0.9503356367349625 0.9162593483924866 0.8789507672190666 0.8413646370172501
          0.778580516576767 0.7392179295420647 0.7061434611678123 0.6696462482213974 0.6859428621828556 0.6887048147618771
          0.7026106081902981 0.723141860216856 0.753616638481617 0.7658296190202236 0.7792721390724182 0.7860747762024403
          0.7920649461448193 0.8043235950171947 0.8195682317018509 0.8450089581310749 0.855004072189331 0.8531399294734001
          0.8628460690379143 0.8711016550660133 0.8637073412537575 0.9326862096786499 0.964745469391346 0.9969620108604431
          1.0604195520281792 1.094124436378479 1.0283359959721565 1.002717163413763 0.9590936377644539 0.9688294604420662
          1.0125326327979565 1.0605017952620983 1.0291314125061035 1.0298143289983273 1.0351679064333439 1.0414065159857273
          1.048350039869547 1.0800951644778252 1.0451471265405416 1.0685782632790506 1.105373539030552 1.1608441844582558
          1.1639468632638454 1.207772884517908 1.2182355336844921 1.221151441335678 1.1482632756233215 1.1126109696924686
          1.1431141644716263 1.1530771926045418 1.1921135261654854 1.2649070248007774 1.3712884038686752 1.4475682154297829
          1.5608738511800766 1.4443997293710709 1.321382649242878 1.2653638646006584 1.2453894317150116 1.2587151005864143
          1.2505571842193604 1.2294946834445 1.1636221557855606 1.1660586446523666 1.2293172478675842 1.18824053555727
          1.1860797926783562 1.2185685113072395 1.2351575642824173 1.177083171904087 1.1244058385491371 1.3466261848807335
          1.5742175802588463 1.5821527168154716 1.625746876001358 1.6429232507944107 1.3637255057692528 1.3217724785208702
          1.1702579632401466 1.1493266001343727 1.2516545504331589 1.1667192950844765 1.06471299380064 1.137450985610485
          1.1812236085534096 1.2063842117786407 1.272253878414631 1.2400576919317245 1.2075047194957733 1.1798333674669266
          1.1493199542164803 1.123238317668438 1.096879556775093 1.0705071166157722 1.0399769991636276 1.0074173659086227
          0.9716442599892616 0.9367890879511833 0.895841509103775 0.8647590726613998 0.8171836659312248 0.7540092840790749
          0.7182576730847359 0.6731517985463142 0.6610654667019844 0.6818904764950275 0.7038901932537556 0.698431096971035
          0.7424708232283592 0.7510783448815346 0.745026919990778 0.7677830122411251 0.7680856063961983 0.7877082414925098
          0.8128244578838348 0.8333572335541248 0.8522516749799252 0.8538528457283974 0.8646050617098808 0.8796053603291512
          0.8737443313002586 0.9359119459986687 0.9643387198448181 1.0061620399355888 1.0641451254487038 1.1025217175483704
          1.0774596855044365 1.024863786995411 0.9826297126710415 1.011334702372551 1.0078483410179615 1.0547786206007004