<VTKFile type="PolyData" version="1.0" byte_order="LittleEndian" header_type="UInt64">
  <PolyData>
    <Piece NumberOfPoints="10000" NumberOfVerts="0" NumberOfLines="0" NumberOfStrips="0" NumberOfPolys="9801">
      <PointData>
        <DataArray type="Float32" Name="zvalue" NumberOfComponents="1" format="ascii" RangeMin="0.4824354975717142" RangeMax="1.9191165119409561">
          1.0637957379221916 1.0503484010696411 1.0377845838665962 1.024141013622284 1.006616160273552 0.987611211836338
          0.9651043191552162 0.9459616094827652 0.9217046350240707 0.9066963046789169 0.8982547149062157 0.8651347383856773
          0.8367229625582695 0.8111946359276772 0.8011420965194702 0.7940447553992271 0.7852937206625938 0.765071876347065
          0.7391158491373062 0.7186245694756508 0.6996132060885429 0.6702800765633583 0.6562754809856415 0.6521940529346466
          0.6600357741117477 0.6755308881402016 0.6918510273098946 0.706947036087513 0.7218812480568886 0.7376265190541744
          0.7587097808718681 0.7518081590533257 0.779527585953474 0.8196818642318249 0.8262940123677254 0.843693196773529
          0.9271711334586143 0.9137731418013573 0.9300557374954224 0.9407470598816872 0.9561180993914604 0.9912160038948059
          0.973446898162365 0.9816693738102913 0.9894608557224274 1.0074375122785568 1.0059925690293312 1.0065785273909569
          1.0046841129660606 1.006023682653904 0.980649895966053 1.070358857512474 1.078127197921276 1.0812459290027618
          1.0842564404010773 1.0890233665704727 1.0949416384100914 1.099460929632187 1.067703552544117 1.0726293548941612
          1.026371605694294 1.030352108180523 1.0853793025016785 1.0890783295035362 1.0926493555307388 1.096098743379116
          1.0996305346488953 1.1357662230730057 1.138208530843258 1.1412635371088982 1.1444476693868637 1.1476309299468994
          1.1508018970489502 1.1542473211884499 1.1365637332201004 1.138341061770916 1.1114560142159462 1.0367908328771591
          0.9692715778946877 1.173451378941536 1.1499891579151154 1.3824053555727005 1.2610550597310066 1.2692924290895462
          1.3457256630063057 1.4393419325351715 1.446865513920784 1.3797378242015839 1.2568791210651398 1.1899879351258278
          1.0467415675520897 1.0481503792107105 1.0495025180280209 1.0508149676024914 1.1085722707211971 1.109597984701395
          1.110883891582489 1.1123857349157333 1.1712879464030266 1.1710467785596848 1.0754751414060593 1.0612379387021065
          1.0474914908409119 1.0344241857528687 1.0181117877364159 0.9996515586972237 0.977700300514698 0.952938087284565
          0.9337494298815727 0.9062714204192162 0.8980685845017433 0.8836627155542374 0.8466768339276314 0.8195149004459381
          0.7977057471871376 0.7909364625811577 0.7813310623168945 0.7727494388818741 0.7483363151550293 0.7234587445855141
          0.7098637744784355 0.6809238009154797 0.6654010601341724 0.6619423255324364 0.6653369963169098 0.679783284664154
          0.6970312520861626 0.7113364115357399 0.7265335209667683 0.7429873496294022 0.763993926346302 0.77055624127388
          0.7791540920734406 0.8079791851341724 0.8267889097332954 0.8436874225735664 0.9020082466304302 0.9348954185843468
          0.9282407611608505 0.9385334402322769 0.9621197581291199 0.9951105862855911 1.0083168894052505 1.0192489549517632
          1.0052447617053986 1.0781895518302917 1.0467112883925438 1.044993333518505 1.0076335966587067 1.0083919391036034
          1.002737671136856 1.028564177453518 1.051144227385521 1.078287035226822 1.083420380949974 1.0888302251696587
          1.0939095839858055 1.050559613853693 1.021182507276535 1.0254936590790749 1.026544712483883 1.0321038588881493
          1.087470792233944 1.0911047905683517 1.0947010144591331 1.0982427075505257 1.1349192187190056 1.1371326223015785
          1.1402331441640854 1.143501415848732 1.1467776522040367 1.1500635743141174 1.1533509567379951 1.1381196081638336
          1.1712742075324059 1.140773668885231 1.0440741032361984 0.984855443239212 1.0213114619255066 1.0886933207511902
          1.1880432069301605 1.2930725067853928 1.1627672091126442 1.1988283097743988 1.3645113818347454 1.3883741833269596
          1.4266304597258568 1.383875921368599 1.2803148329257965 1.1556450724601746 1.1036910265684128 1.1058436185121536
          1.1071099378168583 1.10847083106637 1.109919298440218 1.1113239005208015 1.1126761697232723 1.113997932523489
          1.115290030837059 1.11629181727767 1.0881102979183197 1.072857104241848 1.058053508400917 1.0444823205471039
          1.0287769064307213 1.010700762271881 0.9923224672675133 0.96723622828722 0.9405179396271706 0.9144344255328178
          0.8900057598948479 0.8875486552715302 0.865045391023159 0.8328985422849655 0.8043045476078987 0.7874246910214424
          0.7825867310166359 0.7705257833003998 0.7573462426662445 0.7326618656516075 0.7159837707877159 0.6947643607854843
          0.6714646853506565 0.6692514643073082 0.6719954758882523 0.6858541741967201 0.7029386758804321 0.7172939479351044
          0.7316757887601852 0.7486795783042908 0.769923247396946 0.7862154617905617 0.7776673063635826 0.8011045642197132
          0.8230797499418259 0.8426205217838287 0.8952851668000221 0.9085204564034939 0.9275554195046425 0.9596700668334961
          0.9670915380120277 0.9926646053791046 1.006537765264511 1.0338796749711037 1.1103234589099884 1.1125763803720474
          1.0410655215382576 1.0507405176758766 1.0095776244997978 1.0107611641287804 1.0022753179073334 1.0264381617307663
          1.0280662178993225 1.0292690321803093 1.0817893147468567 1.084998443722725 1.0449292846024036 1.0508629977703094
          1.0328659564256668 1.0300283916294575 0.9794665649533272 1.0334203392267227 1.089699238538742 1.0932716354727745
          1.0969256311655045 1.1370347663760185 1.1364675536751747 1.1394249647855759 1.1427094042301178 1.1460384875535965
          1.1493849605321884 1.1529080420732498 1.1349137499928474 1.1712442860007286 1.1738394126296043 1.1766770035028458
          1.0451598465442657 0.9346947744488716 1.1612586006522179 1.0663715973496437 1.212811641395092 1.3219592422246933
          1.2289329394698143 1.1486174687743187 1.3890431374311447 1.4061347804963589 1.4195496514439583 1.4440071880817413
          1.3028878644108772 1.2600349560379982 1.1424839496612549 1.1075069792568684 1.1089460961520672 1.1103377304971218
          1.1117952540516853 1.1132052727043629 1.1145285293459892 1.153297483921051 1.1171175725758076 1.1183843165636063
          1.1017195507884026 1.0853988453745842 1.069385565817356 1.054680272936821 1.0393747836351395 1.022030033171177
          1.0037271901965141 0.9820724800229073 0.9541643112897873 0.9303598552942276 0.8924848586320877 0.8761582300066948
          0.8734532073140144 0.841035358607769 0.8178067803382874 0.7935855612158775 0.7802810147404671 0.7718380838632584
          0.7573783025145531 0.7404690831899643 0.7217699065804482 0.7079408466815948 0.6790910288691521 0.6748574376106262
          0.6769179701805115 0.6896208599209785 0.7086715027689934 0.724764458835125 0.7386544495820999 0.7551979050040245
          0.7759055122733116 0.7940622940659523 0.7550220936536789 0.7774112038314342 0.795019157230854 0.8199590519070625
          0.8910783194005489 0.9115143232047558 0.9305909425020218 0.9768603593111038 0.9444362856447697 0.9525481648743153
          0.9997420832514763 1.0322610586881638 1.1105444431304932 1.092998132109642 1.0826406553387642 1.0503839999437332
          1.0109381601214409 1.0122804790735245 0.9986251816153526 1.0258555710315704 1.0214911475777626 1.030354082584381
          1.024546854197979 1.0401085242629051 1.046180136501789 1.0519854724407196 1.0570441968739033 0.9779547564685345
          0.9820899702608585 0.9862076342105865 1.0920731127262115 1.0957191735506058 1.0994029343128204 1.1365185678005219
          1.1388339400291443 1.1420550867915154 1.1454390957951546 1.1688681840896606 1.1608607769012451 1.168168418109417
          1.168438881635666 1.1734812334179878 1.17648084461689 1.1656148210167885 0.9974885210394859 0.9881418086588383
          1.0910337418317795 0.9757978320121765 1.228335291147232 1.3526891246438026 1.255120299756527 1.2705017402768135
          1.394784390926361 1.436494655907154 1.4242498353123665 1.3575338199734688 1.2693077847361565 1.2353824526071548
          1.1443788558244705 1.146065630018711 1.1477152332663536 1.1493079364299774 1.1512077003717422 1.1151272617280483
          1.116432175040245 1.1746419966220856 1.2143250778317451 1.2540724948048592 1.1165993213653564 1.098964735865593
          1.0817425101995468 1.0655710101127625 1.0498907268047333 1.033233568072319 1.0154430642724037 0.9944765344262123
          0.9693460464477539 0.9393646493554115 0.9142573997378349 0.8728569149971008 0.8654688522219658 0.8531903252005577
          0.8188273310661316 0.8033342510461807 0.784703366458416 0.7745008394122124 0.7584017291665077 0.7417659536004066
          0.7262451872229576 0.7181337848305702 0.6875380799174309 0.675900399684906 0.687079131603241 0.6900636479258537
          0.7088397070765495 0.7296041995286942 0.7479582279920578 0.7634573355317116 0.7822747230529785 0.7894505560398102
          0.7584979608654976 0.7794589661061764 0.7974947765469551 0.8128210827708244 0.8638878352940083 0.9135875254869461
          0.9379754588007927 0.9770717918872833 0.9438478536903858 0.9547707587480545 0.9628349803388119 1.0081899166107178
          1.1054550632834435 1.084817498922348 1.0804605931043625 1.0367293059825897 1.0120640024542809 1.013270653784275
          1.016379937529564 1.0126141533255577 1.0241403058171272 1.005322776734829 0.9890371933579445 0.9925883747637272
          1.0489210598170757 1.0542137920856476 1.0599005483090878 0.9808574467897415 0.9848228916525841 0.9947660006582737
          1.0435557998716831 1.0984512194991112 1.1023199036717415 1.1387386098504066 1.1415689140558243 1.144996702671051
          1.148583434522152 1.2118342220783234 1.2069092392921448 1.1688097789883614 1.240658313035965 1.2080605179071426
          1.1793782338500023 1.0362975224852562 1.0035185106098652 0.9579545818269253 1.0228195637464523 1.1035594567656517
          1.2324210107326508 1.2860029488801956 1.24261973798275 1.3683667480945587 1.327141109853983 1.4415796622633934
          1.42921856418252 1.2866846360266209 1.2734879851341248 1.2381196171045303 1.1985044181346893 1.1115084066987038
          1.1129623353481293 1.1143669560551643 1.1157311759889126 1.1552852168679237 1.194026418030262 1.2148629650473595
          1.2163921371102333 1.17914829403162 1.1330124661326408 1.1138617247343063 1.0951087027788162 1.0773752853274345
          1.0606750473380089 1.0438036993145943 1.0270546525716782 1.0077510476112366 0.9825263172388077 0.9533414170145988
          0.9246897473931313 0.8881768360733986 0.8567832708358765 0.8515588566660881 0.8227498531341553 0.8015458807349205
          0.7909566015005112 0.778923787176609 0.7630642950534821 0.7416635081171989 0.7290258929133415 0.7229169458150864
          0.6960948184132576 0.6795041114091873 0.6905293315649033 0.6945332288742065 0.7064147889614105 0.730196014046669
          0.7553377524018288 0.7928762435913086 0.7895063906908035 0.787379827350378 0.7807606942951679 0.783082865178585
          0.8017646037042141 0.8347251228988171 0.8655762933194637 0.9057243578135967 0.9396786913275719 0.9761356860399246
          0.9650983214378357 0.9575443342328072 0.9662384279072285 0.973046999424696 1.0645025819540024 1.080107219517231
          1.0833248421549797 1.0108997374773026 1.013133205473423 1.0146892666816711 1.0165637508034706 0.9849194437265396
          0.9769943132996559 1.0000148229300976 1.013223860412836 0.9952709153294563 1.0042784288525581 1.0579621456563473
          1.0604488104581833 0.9838150441646576 0.987588282674551 1.00375297665596 1.0460353903472424 1.0489250868558884
          1.0793056041002274 1.0881214812397957 1.091276504099369 1.0952911153435707 1.1616564989089966 1.175284568220377
          1.1834059692919254 1.1529635600745678 1.1897893324494362 1.2101813778281212 1.105360984802246 1.0578052811324596
          0.9845332624390721 0.8835629285313189 1.0113630592823029 1.1375473253428936 1.2749778181314468 1.2586591616272926
          1.2490800842642784 1.3439150005578995 1.3722243010997772 1.448661707341671 1.4334147907793522 1.2902062125504017
          1.2761344611644745 1.2407761812210083 1.2067355960607529 1.150937743484974 1.189789965748787 1.191644012928009
          1.1555433422327042 1.157160997390747 1.1607291996479034 1.179131731390953 1.1800491139292717 1.1812620088458061
          1.149965450167656 1.1303366348147392 1.1098998486995697 1.0903401151299477 1.072043165564537 1.0542864799499512
          1.03726227581501 1.0196508839726448 0.9972155913710594 0.9710597917437553 0.9330454394221306 0.9117821231484413
          0.8694790452718735 0.8434465676546097 0.8352999910712242 0.7998716533184052 0.7880480214953423 0.7823978811502457
          0.7719894200563431 0.7482815161347389 0.7313350513577461 0.7203627154231071 0.7101127803325653 0.685061052441597
          0.6863084807991982 0.7280398085713387 0.7051979601383209 0.7293096631765366 0.7612846717238426 0.8106291070580482
          0.7975933030247688 0.7930988222360611 0.8086923770606518 0.8271134681999683 0.8503154665231705 0.8568894788622856
          0.8689063042402267 0.8806428611278534 0.9442045539617538 0.9746160209178925 0.9873570278286934 0.9602198861539364
          0.9596419222652912 0.9617016799747944 1.0648450553417206 1.0410176217556 1.0411440581083298 1.012014091014862
          1.0146935135126114 1.0299308821558952 1.0027670115232468 0.9015616066753864 0.9432064704596996 1.0129346624016762
          1.0216795057058334 1.0046749636530876 1.0021040588617325 1.0293296314775944 1.036019243299961 0.986702598631382
          0.9903929233551025 1.0125862658023834 1.0490147843956947 1.051933079957962 1.090432781726122 1.091297797858715
          1.1222900822758675 1.1299421936273575 1.1501730605959892 1.1783298216760159 1.1869760267436504 1.234225906431675
          1.2616841793060303 1.220772735774517 1.0891264751553535 1.0160001209005713 0.7709937589243054 0.9194794991053641
          0.9991375505924225 1.2432665452361107 1.3620489537715912 1.2294825315475464 1.3344358652830124 1.3478181958198547
          1.41044332832098 1.4379967674613 1.475383698940277 1.2930144928395748 1.2933733947575092 1.2813751548528671
          1.2087718099355698 1.1536701694130898 1.15584247559309 1.1573363989591599 1.119931012392044 1.1212125942111015
          1.122477699071169 1.2066272422671318 1.2565961331129074 1.1665786430239677 1.168718658387661 1.1470238417387009
          1.126413457095623 1.1049968674778938 1.0847653150558472 1.0654068812727928 1.046929731965065 1.0294808819890022
          1.009363628923893 0.9835905879735947 0.9547648802399635 0.9178522974252701 0.8905469551682472 0.851560540497303
          0.8298121467232704 0.8178824186325073 0.781417727470398 0.7781839668750763 0.7763331681489944 0.7601011097431183
          0.7338251397013664 0.7216236367821693 0.7194421589374542 0.6944402232766151 0.6867814883589745 0.7212597504258156
          0.7341802641749382 0.7237996533513069 0.7682696878910065 0.8029458820819855 0.8026871755719185 0.8161121308803558
          0.8099003285169601 0.8297383598983288 0.8934457823634148 0.8958549350500107 0.8718236908316612 0.8810737729072571
          0.9088666960597038 0.9725206345319748 0.9873636141419411 0.9612124897539616 0.9391503147780895 0.9411252401769161
          1.0232333317399025 1.0002263188362122 1.0046469941735268 1.042786031961441 1.0519819781184196 1.0513476580381393
          0.981415793299675 0.9069196321070194 0.9490410760045052 0.9886075928807259 0.9971873126924038 0.9974212236702442
          0.9762657023966312 0.9889043942093849 1.0671669840812683 1.0212483517825603 1.0248190127313137 1.07558723539114
          1.0831903405487537 1.0792738571763039 1.120571855455637 1.0942109897732735 1.0765780620276928 1.1138166934251785
          1.1637901477515697 1.1657897122204304 1.2028690166771412 1.326393835246563 1.2645405530929565 1.1429855823516846
          1.0821390002965927 0.8437219671905041 0.8432449386455119 1.017893809825182 1.1295588575303555 1.3295210413634777
          1.412264071404934 1.27900892496109 1.391192153096199 1.3534242808818817 1.4151140749454498 1.454882450401783
          1.4105815887451172 1.2922860495746136 1.224157564342022 1.2861263453960419 1.1164022460579872 1.0976034700870514
          1.1009181924164295 1.159609217196703 1.1610968336462975 1.1628430373966694 1.1647716984152794 1.1091938838362694
          1.2267746031284332 1.2267805710434914 1.1907601207494736 1.1668411791324615 1.1435379385948181 1.1216186955571175
          1.0995303243398666 1.078267127275467 1.0580584108829498 1.0389729514718056 1.0195552110671997 0.9967135414481163
          0.9687959030270576 0.9352114647626877 0.903652586042881 0.8615446761250496 0.8379308730363846 0.8179240375757217
          0.8092546463012695 0.772630400955677 0.7748738676309586 0.7665965631604195 0.7438309788703918 0.7269338071346283
          0.7234243005514145 0.7085378766059875 0.6933725029230118 0.7052285671234131 0.7168657705187798 0.730185866355896
          0.7684280201792717 0.7948299050331116 0.8024081811308861 0.8249390795826912 0.8100051060318947 0.8315142765641212
          0.8997131586074829 0.9017516039311886 0.8780791871249676 0.8732650801539421 0.8879713714122772 0.9672259464859962
          0.985797144472599 0.961616039276123 0.9399446733295918 0.9422782734036446 0.9566367194056511 0.9847161322832108
          1.010769285261631 1.047797441482544 1.0436836034059525 1.0079082325100899 1.0042727515101433 0.9447023496031761
          0.9199831597507 0.9676080234348774 1.008558478206396 1.0305959768593311 1.011284302920103 1.0164122730493546
          1.0400172248482704 1.023911103606224 1.027185134589672 1.0830653943121433 1.112442571669817 1.1095099411904812
          1.107670933008194 1.141087617725134 1.1442728973925114 1.1632163226604462 1.1996907107532024 1.2026210874319077
          1.293646290898323 1.3323752358555794 1.25246811658144 1.1245434284210205 0.927720382809639 0.7684459015727043
          0.9924606531858444 1.0590439178049564 1.1843573488295078 1.3919980265200138 1.3068484663963318 1.3140673115849495
          1.4279233515262604 1.3761803805828094 1.3606823161244392 1.4616738110780716 1.3800160512328148 1.321330450475216
          1.1906741298735142 1.2307649552822113 1.2438664063811302 1.2570353746414185 1.1600141301751137 1.1617594435811043
          1.106469001621008 1.1653626002371311 1.126965295523405 1.1673942133784294 1.212184615433216 1.1884829625487328
          1.2154764160513878 1.1896705627441406 1.1645667776465416 1.1398258060216904 1.1159329116344452 1.0934299230575562
          1.0711150467395782 1.0499738827347755 1.0287669748067856 1.0079088285565376 0.9815991222858429 0.9522618353366852
          0.9149560183286667 0.8817572742700577 0.8428924605250359 0.8224537149071693 0.8229530304670334 0.8025563731789589
          0.7651195824146271 0.769746944308281 0.7479162812232971 0.7295577377080917 0.7280557006597519 0.721674919128418
          0.7073260471224785 0.7034778669476509 0.7249943166971207 0.7385391518473625 0.7588396146893501 0.784199669957161
          0.7996585518121719 0.8259834945201874 0.8117405883967876 0.8349294289946556 0.8771180622279644 0.9129976406693459
          0.8934932202100754 0.8721311278641224 0.8887929432094097 0.9264203459024429 0.9772783070802689 0.9522020071744919
          0.9399437755346298 0.9431832768023014 0.9196342825889587 0.9415755048394203 1.0142048299312592 1.0296692326664925
          1.0074698776006699 1.00968848913908 1.016783855855465 0.9755311533808708 0.9696475230157375 1.0079443454742432
          1.0136616080999374 1.0573789551854134 1.0142910405993462 1.0195129327476025 0.997840516269207 1.0073189996182919
          1.04768967628479 1.1163376234471798 1.0691926963627338 1.0737287253141403 1.1433329284191132 1.1439535468816757
          1.1478869244456291 1.2799413166940212 1.2389329299330711 1.3325354680418968 1.366310253739357 1.2753892689943314
          1.1782956644892693 1.1272071823477745 0.8920830860733986 0.8227194100618362 1.1330073364078999 1.1282773949205875
          1.2441224977374077 1.376860648393631 1.2330198138952255 1.422909863293171 1.4750203639268875 1.347185179591179
          1.3133502900600433 1.3692030012607574 1.4131850227713585 1.2847074121236801 1.190607875585556 1.101338006556034
          1.1519424691796303 1.1245747953653336 1.1252470463514328 1.125243190675974 1.1265277490019798 1.1277446299791336
          1.2107237316668034 1.214429635554552 1.1334156915545464 1.133534975349903 1.2421315908432007 1.2151052355766296
          1.1882239133119583 1.1618201434612274 1.1352799907326698 1.1097761765122414 1.0861540362238884 1.0631466954946518
          1.0400234684348106 1.0175016894936562 0.993451327085495 0.9644200652837753 0.9327776208519936 0.896020695567131
          0.8568320572376251 0.8250734284520149 0.8096771985292435 0.8285848498344421 0.7934810966253281 0.757897675037384
          0.7489212155342102 0.7234339341521263 0.7302432060241699 0.7456588968634605 0.7277164235711098 0.7130148112773895
          0.74324681609869 0.7302669361233711 0.7708937451243401 0.7734644860029221 0.7955962792038918 0.8243296220898628
          0.8282094150781631 0.8357835188508034 0.8554719462990761 0.9111466333270073 0.8878720141947269 0.8772311694920063
          0.8885281309485435 0.9103304259479046 0.9469375349581242 0.9626911133527756 0.9363275691866875 0.9436363950371742
          0.9120587818324566 0.9201146401464939 0.9774352759122849 0.9844516068696976 1.0076157301664352 1.0376258790493011
          1.0458142459392548 0.9943753778934479 0.9819764904677868 1.0110045671463013 1.0169747658073902 1.027476616203785
          1.0546373203396797 1.0240348428487778 0.974402017891407 1.0104918517172337 1.0888695903122425 1.050702054053545
          1.072036288678646 1.1084331683814526 1.1547686085104942 1.1611862480640411 1.2258744947612286 1.3787750974297523
          1.3662573546171188 1.3938772529363632 1.4435585662722588 1.2480768412351608 1.1648680418729782 1.0910241156816483
          0.9108551666140556 0.9465479664504528 1.117212176322937 1.2174103148281574 1.268337368965149 1.3317603282630444
          1.2359959818422794 1.3818600699305534 1.4291479736566544 1.3788062036037445 1.3016842529177666 1.2347849234938622
          1.2226670756936073 1.2176753282546997 1.1205878257751465 1.1797959953546524 1.1306765750050545 1.1840351521968842
          1.1866190657019615 1.1277390383183956 1.1295666806399822 1.126347467303276 1.0741436071693897 1.0756259858608246
          1.1767702475190163 1.7200577557086945 1.2710776403546333 1.2425130605697632 1.2141999006271362 1.1864801794290543
          1.1582347005605698 1.1299878880381584 1.10310410708189 1.0783571526408195 1.0543349087238312 1.0289957150816917
          1.0038477927446365 0.9759842827916145 0.9462904930114746 0.9117718562483788 0.8771399930119514 0.8387741446495056
          0.8123520910739899 0.8007797002792358 0.8205117434263229 0.7783861979842186 0.7438060641288757 0.7172238156199455
          0.7179273143410683 0.7521652057766914 0.7544191107153893 0.7287327498197556 0.7330812886357307 0.7336385324597359
          0.7521058842539787 0.7704599797725677 0.7921128273010254 0.8233695775270462 0.8343485891819 0.8330219723284245
          0.8502549715340137 0.9003227837383747 0.8977999873459339 0.8798245713114738 0.8864466696977615 0.903491098433733
          0.9505727961659431 0.9701527133584023 0.9383350536227226 0.95767642557621 0.9417434111237526 0.9502601623535156
          0.9785772785544395 0.998658362776041 1.0133209377527237 1.0458631440997124 1.0020692721009254 1.0038923546671867
          0.9804762788116932 1.0149017535150051 1.0214605294167995 1.0289966687560081 1.0809106603264809 1.0873968228697777
          1.0115242078900337 0.9696741290390491 1.0141218602657318 1.0197052843868732 1.1087096743285656 1.145784929394722
          1.2172846719622612 1.2726684212684631 1.3922399058938026 1.4155401661992073 1.4040448740124702 1.391070369631052
          1.3445511534810066 1.2334560826420784 1.2379799261689186 1.0326985567808151 0.9024103991687298 1.1089212074875832
          1.1285977698862553 1.248688954859972 1.3919122591614723 1.253379251807928 1.2217079997062683 1.387688435614109
          1.318547584116459 1.3026443868875504 1.2767342403531075 1.2149163261055946 1.270057164132595 1.0852112174034119
          1.2056370750069618 1.1640523672103882 1.1654698848724365 1.1494432650506496 1.2119553908705711 1.1330562829971313
          1.113880854099989 1.0754808448255062 1.076224498450756 1.2881988547742367 1.7026251405477524 1.1959805563092232
          1.3005423322319984 1.2718684673309326 1.2422325611114502 1.2127990871667862 1.1836776435375214 1.1539994776248932
          1.1243603974580765 1.096280224621296 1.0716048777103424 1.0445481836795807 1.0176130756735802 0.987678050994873
          0.9562467485666275 0.926207073032856 0.8912303745746613 0.8535731211304665 0.8139020800590515 0.7983702644705772
          0.7922664806246758 0.8074272572994232 0.7589921951293945 0.7182077392935753 0.709574282169342 0.727289579808712
          0.7747182324528694 0.7571723163127899 0.7419804856181145 0.7436184734106064 0.7547517865896225 0.7829475179314613
          0.7962892055511475 0.8261622413992882 0.8375707790255547 0.8325316719710827 0.846464216709137 0.8873087130486965
          0.8998528979718685 0.8766536861658096 0.8908798210322857 0.890192199498415 0.9162944294512272 0.9728766307234764
          0.9751931205391884 0.9780789092183113 0.9813496023416519 1.0304620414972305 1.0886787623167038 1.0209733210504055
          1.0164196342229843 1.0026735216379166 1.0151050761342049 1.0155639052391052 0.9882228635251522 1.0136252492666245
          1.0261258445680141 1.0414514392614365 1.1112948507070541 1.1594345569610596 1.0789100155234337 1.0095322653651237
          1.0517316833138466 1.033518709242344 1.1499085687100887 1.1776793338358402 1.271838128566742 1.3303335160017014
          1.3526455275714397 1.3848125748336315 1.4310955964028835 1.3500417284667492 1.2190232649445534 1.2766404151916504
          1.3150232285261154 1.054594174027443 0.9603043906390667 1.1315338052809238 1.2401913665235043 1.3310174569487572
          1.3650508373975754 1.3316920772194862 1.3901967480778694 1.3946231082081795 1.2572812139987946 1.2183504700660706
          1.332544669508934 1.236826941370964 1.2769079953432083 1.203079454600811 1.140786774456501 1.0619492381811142
          1.1311748996376991 1.133209966123104 1.176053211092949 1.1362417414784431 1.137690395116806 1.1637712270021439
          1.5298349559307098 1.5470490157604218 1.2327722236514091 1.191878117620945 1.330272912979126 1.3013192638754845
          1.2718154042959213 1.2414878755807877 1.2105436846613884 1.179978884756565 1.1499361619353294 1.1183220371603966
          1.0894464328885078 1.063644751906395 1.0347074568271637 1.004284642636776 0.9708650782704353 0.9365400075912476
          0.905157208442688 0.8679656684398651 0.8300333172082901 0.7882695645093918 0.7850654721260071 0.7896312922239304
          0.7883474379777908 0.7305779978632927 0.7154743373394012 0.7163842469453812 0.7501437664031982 0.784683346748352
          0.7649291306734085 0.7592277079820633 0.7609591782093048 0.7798074707388878 0.8082582280039787 0.8259303346276283
          0.836537592113018 0.8354480937123299 0.8479946590960026 0.8742090575397015 0.9140157178044319 0.8913109116256237
          0.9074572399258614 0.9135463908314705 0.9105157293379307 0.9883123077452183 0.9850983060896397 0.9875005558133125
          1.0003391429781914 1.0532470867037773 1.0714088007807732 1.078787598758936 0.999487828463316 1.0176051333546638
          1.045360952615738 1.053649976849556 1.0129226222634315 1.0279480926692486 1.051097422838211 1.0620363019406796
          1.1203764230012894 1.140315257012844 1.0851743966341019 1.092477947473526 1.070233292877674 1.0699638202786446
          1.2288685254752636 1.2884747758507729 1.296480156481266 1.3449954651296139 1.3605382479727268 1.3794733062386513
          1.3490597419440746 1.2824599146842957 1.2681950777769089 1.3513379395008087 1.2124396450817585 1.1122456341981888
          1.0355918444693089 1.1648751087486744 1.3585992380976677 1.4485289826989174 1.2530085369944572 1.371723361313343
          1.5064725875854492 1.278754137456417 1.2142735794186592 1.1613719537854195 1.3052687272429466 1.283969558775425
          1.3224831968545914 1.1657666489481926 1.1683519929647446 1.2121163979172707 1.231141909956932 1.1331651285290718
          1.1427786648273468 1.2226466462016106 1.3647603020071983 1.4263238459825516 1.551104724407196 1.4698980897665024
          1.2517533227801323 1.3314135521650314 1.3586250245571136 1.3305207639932632 1.3009383380413055 1.2708346396684647
          1.239767149090767 1.207713820040226 1.1762061640620232 1.1453798115253448 1.111578330397606 1.0821309015154839
          1.0540065988898277 1.023503877222538 0.9904125183820724 0.954538568854332 0.9182355776429176 0.8862782195210457
          0.8404490053653717 0.805512547492981 0.7710900530219078 0.7774588540196419 0.7898480519652367 0.762317530810833
          0.7198587656021118 0.7236957624554634 0.7332271561026573 0.7746045812964439 0.7877391204237938 0.7768541797995567
          0.7711294591426849 0.7847630679607391 0.8153974190354347 0.8271268978714943 0.8445800766348839 0.8409412801265717
          0.8532156348228455 0.869415394961834 0.9163207188248634 0.8764513954520226 0.8963403105735779 0.9115013107657433
          0.9318829737603664 0.9835997670888901 0.9830046594142914 0.9850421771407127 1.005679115653038 1.0032306909561157