<VTKFile type="PolyData" version="1.0" byte_order="LittleEndian" header_type="UInt64">
  <PolyData>
    <Piece NumberOfPoints="10000" NumberOfVerts="0" NumberOfLines="0" NumberOfStrips="0" NumberOfPolys="9801">
      <PointData>
        <DataArray type="Float32" Name="zvalue" NumberOfComponents="1" format="ascii" RangeMin="0.5169259384274483" RangeMax="1.6884466707706451">
          1.0213038101792336 1.0285602509975433 1.035866029560566 1.0431914776563644 1.0505282655358315 1.0578662976622581
          1.0651427209377289 1.0722902193665504 1.0792327746748924 1.085899531841278 1.0921344384551048 1.0978649705648422
          1.081699788570404 1.0858195647597313 1.0675974562764168 1.0698770061135292 1.0494183897972107 1.027739368379116
          1.0270205959677696 1.0253623872995377 1.04879929125309 1.0228507667779922 1.0043624117970467 1.0029365494847298
          0.9766687676310539 0.9703776314854622 0.9717220664024353 0.945462092757225 0.9289116337895393 0.907196395099163
          0.8942773565649986 0.8772751092910767 0.8629546985030174 0.8569273725152016 0.8567830696702003 0.8577304184436798
          0.8663856610655785 0.8776204213500023 0.8939466401934624 0.8944843411445618 0.9052580371499062 0.9466976150870323
          0.9944676831364632 1.0311978906393051 1.053523875772953 1.0938347056508064 1.095202274620533 1.1309491693973541
          1.1265012249350548 1.1448157876729965 1.1546928212046623 1.141382485628128 1.1373901218175888 1.1495469063520432
          1.129316233098507 1.1400000602006912 1.150513619184494 1.160754032433033 1.1938430592417717 1.204139269888401
          1.2143519967794418 1.2243948504328728 1.258499763906002 1.2687269002199173 1.2787757441401482 1.313616082072258
          1.2853452041745186 1.2951544672250748 1.330688439309597 1.3408197462558746 1.3509266301989555 1.3609298542141914
          1.3707774877548218 1.3804345726966858 1.349731981754303 1.359033964574337 1.3958965092897415 1.4052832275629044
          1.4146460592746735 1.4239833652973175 1.433237612247467 1.4423960894346237 1.4514504671096802 1.460357427597046
          1.46914704144001 1.4778086096048355 1.4862817227840424 1.494597852230072 1.5028138160705566 1.468605637550354
          1.4763885885477066 1.4839873611927032 1.4914121180772781 1.4986538290977478 1.505610078573227 1.5123348534107208
          1.5188603699207306 1.525130271911621 1.5311913639307022 1.5370842218399048 1.0169159471988678 1.0240909457206726
          1.031301125884056 1.0385299324989319 1.0457708463072777 1.0529812425374985 1.060099758207798 1.0670515969395638
          1.0737869292497635 1.080202355980873 1.0861391797661781 1.0915120169520378 1.0750912353396416 1.057609960436821
          1.060205414891243 1.0620288774371147 1.0411967858672142 1.0191296488046646 1.0178837850689888 1.0429455488920212
          1.0167054235935211 1.0114155858755112 1.0054804384708405 0.9914636686444283 0.9730356112122536 0.9632133767008781
          0.9506188854575157 0.9220785573124886 0.9116397425532341 0.8951294347643852 0.8820447847247124 0.8664304241538048
          0.856900043785572 0.8539269268512726 0.8574736788868904 0.8588984608650208 0.8744025453925133 0.8889523446559906
          0.8975835517048836 0.8986548110842705 0.9377768859267235 0.9687320590019226 1.0191580280661583 1.0409855842590332
          1.0810623541474342 1.0836788341403008 1.14249986410141 1.1168628707528114 1.1358627751469612 1.146955981850624
          1.127153716981411 1.1323401778936386 1.1448985487222672 1.1255138739943504 1.1365349516272545 1.1473661735653877
          1.1580077484250069 1.191269390285015 1.2018352076411247 1.2123165279626846 1.2226282432675362 1.2569187954068184
          1.267383024096489 1.3024043142795563 1.3127101436257362 1.2846804559230804 1.2947057113051414 1.3304190635681152
          1.3407445698976517 1.3510443717241287 1.3612630739808083 1.371306724846363 1.3811294883489609 1.3505542278289795
          1.38743706792593 1.3970866650342941 1.4066321849822998 1.416153609752655 1.4256492406129837 1.4350549280643463
          1.4443613141775131 1.453539326786995 1.4625813961029053 1.4715005308389664 1.4802733808755875 1.488848716020584
          1.4972758442163467 1.4633439630270004 1.4713977724313736 1.4792562574148178 1.486925944685936 1.4944120347499847
          1.501698985695839 1.508660450577736 1.5154173076152802 1.5219527035951614 1.5282293856143951 1.5343011021614075
          1.5402023941278458 1.545877754688263 1.0124160796403885 1.019502192735672 1.026613101363182 1.0337423533201218
          1.040867656469345 1.0479407235980034 1.0548956394195557 1.0616592317819595 1.0681790113449097 1.0743257403373718
          1.079955816268921 1.0643590912222862 1.0475069805979729 1.0505091473460197 1.0526254996657372 1.0529608651995659
          1.0113127902150154 1.0103388279676437 1.0084283649921417 1.0325722321867943 1.0053643733263016 0.9958695396780968
          0.9781322553753853 0.9546924605965614 0.9504875913262367 0.955853134393692 0.934168703854084 0.9157912582159042
          0.8957511708140373 0.8849957883358002 0.8729849830269814 0.8578362092375755 0.8547506332397461 0.852789431810379
          0.8635771349072456 0.8713648915290833 0.8842690363526344 0.8918572440743446 0.8926566243171692 0.9291872158646584
          0.9586023986339569 1.0071231126785278 1.0451397374272346 1.067865215241909 1.091562233865261 1.130325049161911
          1.1067494079470634 1.1262336373329163 1.1388956978917122 1.1207864806056023 1.1269059106707573 1.139945164322853
          1.1214832738041878 1.1328437998890877 1.1439848467707634 1.1549891754984856 1.1885310411453247 1.1993813440203667
          1.2101230695843697 1.2207619175314903 1.255238562822342 1.265940472483635 1.3010563477873802 1.3117497265338898
          1.283995009958744 1.2942233011126518 1.3301282450556755 1.340644620358944 1.3511539697647095 1.3615859746932983
          1.3718366548418999 1.3818273097276688 1.3514128625392914 1.3885028585791588 1.3983091861009598 1.4080312848091125
          1.4177092462778091 1.4273682832717896 1.4369367063045502 1.4463925063610077 1.4556936472654343 1.4648741334676743
          1.4739245921373367 1.4828097373247147 1.4915002286434174 1.5000168681144714 1.4661274999380112 1.4742704629898071
          1.4822037369012833 1.4899435341358185 1.4974902272224426 1.5047798603773117 1.5117794126272202 1.5185669511556625
          1.5251057744026184 1.531388759613037 1.5374811291694641 1.5433718860149384 1.5490098595619202 1.554395079612732
          1.0078120231628418 1.0148068368434906 1.021808736026287 1.0288310199975967 1.0358338803052902 1.0427266061306
          1.0495234057307243 1.0561155080795288 1.0624037757515907 1.0682680159807205 1.0735488384962082 1.0577173233032227
          1.0406355187296867 1.0432012006640434 1.0448708161711693 1.0245410278439522 1.0028220862150192 1.0013904199004173
          1.0266235992312431 1.0006705820560455 0.9939271807670593 0.9865091517567635 0.9514361992478371 0.9512210935354233
          0.9448224231600761 0.9345094338059425 0.92280413210392 0.8943898752331734 0.8862348794937134 0.8618625327944756
          0.8596024811267853 0.8529807925224304 0.8526920452713966 0.8536582365632057 0.8682980686426163 0.8798567950725555
          0.886612094938755 0.8872274607419968 0.9211457371711731 0.9488890245556831 0.9952180534601212 1.0318926572799683
          1.0547273382544518 1.0782527476549149 1.0997122302651405 1.0964387655258179 1.1161156073212624 1.1543371379375458
          1.1140034049749374 1.1211408227682114 1.1345997154712677 1.1171983778476715 1.1288920044898987 1.1404047086834908
          1.1517248377203941 1.1856130510568619 1.1967604458332062 1.2077947035431862 1.2187148034572601 1.2534377425909042
          1.2643898501992226 1.2997433990240097 1.3107160702347755 1.2832569926977158 1.3190441653132439 1.3297893181443214
          1.3405377343297005 1.3512495681643486 1.3618974089622498 1.372363604605198 1.3825328648090363 1.379514440894127
          1.3895840421319008 1.3995669037103653 1.4094749838113785 1.4193138927221298 1.429142877459526 1.4388753920793533
          1.4484759122133255 1.4579235017299652 1.4672421663999557 1.476429060101509 1.485431045293808 1.4942332208156586
          1.4605828523635864 1.4689924269914627 1.4772237986326218 1.4852334260940552 1.4930423647165298 1.50064717233181
          1.5079366266727448 1.5149725377559662 1.5217850357294083 1.5283214002847672 1.5346111208200455 1.5407161563634872
          1.5465921610593796 1.5521863549947739 1.5575378388166428 1.5626433193683624 1.0031112506985664 1.0100058019161224
          1.0168910548090935 1.0237981230020523 1.0306521132588387 1.0373775288462639 1.0439946427941322 1.050385907292366
          1.0564329624176025 1.0619954466819763 1.0669303685426712 1.0305783450603485 1.03358393907547 1.0356961786746979
          1.0363638028502464 0.9953554943203926 0.994167685508728 0.9921724200248718 1.0163784995675087 0.9897561371326447
          0.9851758405566216 0.9572331607341766 0.9266917034983635 0.9429573863744736 0.929174967110157 0.9221290871500969
          0.9029166102409363 0.8837759494781494 0.8725795894861221 0.8611527532339096 0.8530075922608376 0.8492999225854874
          0.8545026332139969 0.8649744242429733 0.87554070353508 0.8816494271159172 0.8822503089904785 0.9023773968219757
          0.9536221250891685 0.9837158769369125 1.0189955532550812 1.0415456891059875 1.0648006275296211 1.0868543460965157
          1.0858376622200012 1.1056095734238625 1.1451577246189117 1.106787882745266 1.1150051727890968 1.1288994550704956
          1.1126282662153244 1.1246846616268158 1.1365580633282661 1.1706017777323723 1.1824283450841904 1.1939624473452568
          1.2053138613700867 1.2165155112743378 1.2515260502696037 1.2869159057736397 1.2983157113194466 1.3095700293779373
          1.2824662774801254 1.3184936121106148 1.3294274881482124 1.3403869792819023 1.3513248786330223 1.3622040376067162
          1.3728810474276543 1.4102270379662514 1.3804406747221947 1.3906999975442886 1.4008744657039642 1.4109639823436737
          1.4209739714860916 1.4309708029031754 1.4408698827028275 1.450622782111168 1.4602341204881668 1.469700187444687
          1.479017361998558 1.4881336241960526 1.4547991156578064 1.4634344279766083 1.4719430059194565 1.4802614748477936
          1.488346442580223 1.496222823858261 1.5038724392652512 1.511169582605362 1.51823890209198 1.525066301226616
          1.5316028892993927 1.5378982722759247 1.5440060794353485 1.5498427748680115 1.5554058998823166 1.560716688632965
          1.5657707750797272 1.5705575942993164 0.9983502328395844 1.0050964653491974 1.011862799525261 1.0186298042535782
          1.0253342613577843 1.0319027081131935 1.0383195951581001 1.044490709900856 1.0502637475728989 1.0554808527231216
          1.0202896371483803 1.0236963480710983 1.026322916150093 1.0279727056622505 1.008166678249836 0.9869794175028801
          0.9853719025850296 1.01033353805542 0.9850994274020195 0.9693020358681679 0.9737878665328026 0.9282053560018539
          0.9282420128583908 0.9158680588006973 0.9177149534225464 0.9080311954021454 0.880554735660553 0.8713434636592865
          0.8613030463457108 0.8517729863524437 0.8482406437397003 0.8540610149502754 0.8613911271095276 0.8658005595207214
          0.8768689408898354 0.8840077444911003 0.8958362638950348 0.9305898547172546 0.9724754691123962 1.0063521265983582
          1.0284046083688736 1.0512926802039146 1.0738743469119072 1.0949922651052475 1.1135798692703247 1.1107534244656563
          1.0991880223155022 1.1085031628608704 1.12284454703331 1.1076896712183952 1.120203249156475 1.1324391663074493
          1.1667352616786957 1.1789522543549538 1.1909211874008179 1.2026418820023537 1.2141787335276604 1.2494524791836739
          1.285120114684105 1.2967694401741028 1.2705718651413918 1.2815992385149002 1.317873127758503 1.3290384337306023
          1.3402143344283104 1.3513778671622276 1.362487517297268 1.3733784407377243 1.4055573120713234 1.3813906610012054
          1.391849234700203 1.4022262245416641 1.4125045537948608 1.422701671719551 1.432866558432579 1.4429171979427338
          1.4528370797634125 1.4626178741455078 1.4722351878881454 1.481681764125824 1.4909173995256424 1.4576290845870972
          1.4663741886615753 1.4749815464019775 1.4833872616291046 1.4915462136268616 1.4994881451129913 1.5071419328451157
          1.514479473233223 1.5215778201818466 1.5284051597118378 1.53494593501091 1.5412586033344269 1.5473498553037643
          1.5531394928693771 1.5586664825677872 1.5639290511608124 1.5689196586608887 1.5736413300037384 1.5781086832284927
          0.9935227110981941 1.0000915080308914 1.0067153200507164 1.0133442431688309 1.019890770316124 1.0262930020689964
          1.0324981212615967 1.0384247452020645 1.0438669100403786 1.0487701073288918 1.0135644003748894 1.0166537538170815
          1.0188500881195068 1.019949123263359 0.9796667248010635 0.9784314334392548 0.976325124502182 0.9810484871268272
          1.000803455710411 0.973753497004509 0.9428771361708641 0.9005542173981667 0.9259781613945961 0.909931130707264
          0.9063785448670387 0.8868358358740807 0.8678731843829155 0.8640208318829536 0.852064236998558 0.8456768169999123
          0.8480434268712997 0.8554355502128601 0.8608012646436691 0.8720096424221992 0.8787069767713547 0.8897654935717583
          0.9220883846282959 0.9615602120757103 0.9940192103385925 1.0153168961405754 1.0378325954079628 1.0607537478208542
          1.082175798714161 1.102014847099781 1.1006228923797607 1.091158039867878 1.1016114056110382 1.1163843050599098
          1.1024607941508293 1.1154064610600471 1.128044843673706 1.1625946909189224 1.175227478146553 1.1876229792833328
          1.1997384652495384 1.2116544917225838 1.247194916009903 1.2831973657011986 1.2951389625668526 1.2693480104207993
          1.2806389927864075 1.3171824142336845 1.3286137208342552 1.3400227203965187 1.3514228016138077 1.3627616539597511
          1.4006126895546913 1.3715841844677925 1.382375307381153 1.3930553644895554 1.403629332780838 1.41409569978714
          1.4244899600744247 1.4348164349794388 1.4450339823961258 1.4551245868206024 1.4650757163763046 1.474851444363594
          1.4844341427087784 1.4515219181776047 1.4605537801980972 1.4694055318832397 1.4781105071306229 1.486600324511528
          1.4948350340127945 1.5028403401374817 1.5104935765266418 1.517867848277092 1.5249910652637482 1.5318124890327454
          1.5383506417274475 1.5446745306253433 1.550724595785141 1.556479573249817 1.5619621723890305 1.567168578505516
          1.5720876455307007 1.576745942234993 1.5811133682727814 1.585184171795845 0.9886094927787781 0.9950345456600189
          1.0014692172408104 1.007939636707306 1.0143255814909935 1.0205469280481339 1.0265053510665894 1.0321340560913086
          1.0373110324144363 1.00320815294981 1.0067030042409897 1.00943211466074 1.0112014263868332 0.9720590338110924
          0.9714531898498535 0.9698016792535782 0.9942082241177559 0.9698673710227013 0.9708139449357986 0.9626308158040047
          0.9126719832420349 0.920187696814537 0.8905543386936188 0.8993146121501923 0.8896277248859406 0.8665312603116035
          0.856178343296051 0.8493235111236572 0.8438505008816719 0.8455065786838531 0.8479779064655304 0.8563283532857895
          0.8668181151151657 0.8735208138823509 0.8839323967695236 0.9139404892921448 0.939184382557869 0.9818338826298714
          1.0025581121444702 1.024401180446148 1.0475525856018066 1.1046444848179817 1.090030051767826 1.0901223793625832
          1.0827268213033676 1.0943688303232193 1.109543152153492 1.096901498734951 1.1102698147296906 1.1233416497707367
          1.1581598371267319 1.1711970418691635 1.1840380132198334 1.1965975761413574 1.2088949531316757 1.2684908732771873
          1.2810663804411888 1.2933907359838486 1.2680349200963974 1.304590456187725 1.3164110034704208 1.3281329423189163
          1.3398117795586586 1.3514545634388924 1.3895228207111359 1.4011102840304375 1.3723428845405579 1.3833804354071617
          1.3943030536174774 1.4050761312246323 1.4157427996397018 1.4263340085744858 1.4368229359388351 1.4472237825393677
          1.4574900418519974 1.4676087349653244 1.4775540679693222 1.4872955977916718 1.4544199407100677 1.4635748118162155
          1.472536325454712 1.4813365042209625 1.4899083375930786 1.498216524720192 1.5062655955553055 1.5139301717281342
          1.521337479352951 1.5284778028726578 1.5352903753519058 1.5418255627155304 1.5481484830379486 1.55414779484272
          1.5598614513874054 1.5652914643287659 1.570427730679512 1.5752842873334885 1.5798569917678833 1.5841004848480225
          1.5880613178014755 1.591756284236908 0.9836146011948586 0.9898941069841385 0.9961665347218513 1.0024260953068733
          1.0086213499307632 1.0146172940731049 1.020341768860817 1.0257133468985558 1.011653557419777 0.9965246021747589
          0.9996773228049278 1.0020448714494705 1.0033833608031273 0.9642844349145889 0.9630942121148109 0.960824728012085
          0.9646100252866745 0.9872359111905098 0.9607413336634636 0.9318541884422302 0.8839771002531052 0.8936941102147102
          0.8888567835092545 0.8886195719242096 0.8735016733407974 0.8502792939543724 0.8450527712702751 0.8409168794751167
          0.8381325975060463 0.8429033681750298 0.8533758893609047 0.8612440228462219 0.8680332079529762 0.883834071457386
          0.9059797078371048 0.9297547861933708 0.9699848145246506 0.989994689822197 1.0112335607409477 1.0343383327126503
          1.090023621916771 1.0779331624507904 1.0792678520083427 1.0729025825858116 1.0867618471384048 1.102341204881668
          1.0909983068704605 1.1047965809702873 1.1183125004172325 1.153410866856575 1.1668678745627403 1.180165857076645
          1.193173073232174 1.2059040665626526 1.2657691165804863 1.2787385135889053 1.2914697378873825 1.266624964773655
          1.3034314513206482 1.3155471608042717 1.327595204114914 1.3395438641309738 1.3776336759328842 1.3897778242826462
          1.4016042426228523 1.3731169700622559 1.3844133913516998 1.3955800086259842 1.4065635353326797 1.4174467325210571
          1.4282252490520477 1.438894584774971 1.4494904577732086 1.4599370807409286 1.470227673649788 1.480349376797676
          1.4479256570339203 1.4574168771505356 1.4666940867900848 1.4757675528526306 1.4846649318933487 1.4933165907859802
          1.501693606376648 1.5097471922636032 1.5174537897109985 1.5248894542455673 1.5320256799459457 1.5388386398553848
          1.5453813970088959 1.5516600161790848 1.5576191991567612 1.5632832497358322 1.5686504691839218 1.5737099647521973
          1.5784912258386612 1.5829436779022217 1.5870766192674637 1.5909177362918854 1.5944892317056656 1.5977702140808105
          0.9785237610340118 0.984658420085907 0.9907578080892563 0.996797502040863 1.0027869939804077 1.0085701495409012
          1.0140594094991684 1.0191376134753227 1.0049306973814964 0.9897079020738602 0.9925050884485245 0.9944994077086449
          0.9566757306456566 0.9562431573867798 0.9545226693153381 0.9783911034464836 0.9654867425560951 0.9574979618191719
          0.9306778535246849 0.883273683488369 0.8935886025428772 0.8682719320058823 0.8788864463567734 0.8701142817735672
          0.8433193862438202 0.8384813740849495 0.8359022289514542 0.8347767144441605 0.8371312096714973 0.8419032916426659
          0.8549390807747841 0.8621606156229973 0.8770106732845306 0.8980796784162521 0.9210511967539787 0.9584614783525467
          0.9776506423950195 0.9983326271176338 1.0318660363554955 1.0753917768597603 1.0656746625900269 1.0681500136852264
          1.0595663860440254 1.0786863341927528 1.0947737619280815 1.0847830027341843 1.0989719703793526 1.1129295825958252
          1.1483083367347717 1.1622315868735313 1.1759413704276085 1.1894609853625298 1.2026409283280373 1.2627968192100525
          1.2761909738183022 1.2895258590579033 1.2651199102401733 1.3021703213453293 1.3145870342850685 1.3269596546888351
          1.3651008233428001 1.3776055425405502 1.390000231564045 1.4021011367440224 1.3739041611552238 1.3854717463254929
          1.3968742489814758 1.408091962337494 1.4192031472921371 1.4301656931638718 1.4410357773303986 1.4518342316150665
          1.4624722748994827 1.4729381650686264 1.4410201758146286 1.4508907496929169 1.4605205357074738 1.4699161648750305
          1.4791013896465302 1.4880968630313873 1.4968279302120209 1.5052727460861206 1.5133225619792938 1.5210657864809036
          1.5285245180130005 1.5356500297784805 1.5424537360668182 1.5490004569292068 1.555223524570465 1.5611366629600525
          1.5667435824871063 1.5720307230949402 1.5770235806703568 1.5816995054483414 1.5860203355550766 1.5900363624095917
          1.5937512665987015 1.5971746146678925 1.6002777218818665 1.6030845642089844 0.9733680337667465 0.9793245568871498
          0.9852626472711563 0.9911219701170921 0.9968499317765236 1.002408117055893 1.0076676309108734 0.9940366670489311
          0.9795212596654892 0.9827603623270988 0.9852023869752884 0.9868004322052002 0.9490244016051292 0.9479618743062019
          0.945801131427288 0.9496741890907288 0.9726045206189156 0.9288625717163086 0.9200177639722824 0.8976631388068199
          0.8870180621743202 0.8703427687287331 0.8590083420276642 0.8402181342244148 0.8342971578240395 0.8285863250494003
          0.8300468996167183 0.8294964730739594 0.8368398994207382 0.8476738408207893 0.8556570708751678 0.8699121996760368
          0.8901172950863838 0.9114109352231026 0.947150394320488 0.9655980169773102 0.985540583729744 1.0355256348848343
          1.0608194544911385 1.0532420948147774 1.056884877383709 1.0444511622190475 1.0703598707914352 1.0868028923869133
          1.0782801136374474 1.0927740260958672 1.107184499502182 1.1428521126508713 1.1572325304150581 1.171417474746704
          1.1853858307003975 1.2222393304109573 1.259554661810398 1.2734243348240852 1.2508125379681587 1.2880551740527153
          1.3008152469992638 1.3135427981615067 1.3517672568559647 1.3647098317742348 1.3775383457541466 1.3901942074298859
          1.4025849550962448 1.3747318238019943 1.3865514546632767 1.3981983065605164 1.4096617549657822 1.4209850430488586
          1.4321724027395248 1.4432571530342102 1.454251617193222 1.4650914371013641 1.475739747285843 1.4439298063516617
          1.4539505690336227 1.4637259542942047 1.473244845867157 1.4825418144464493 1.4916356354951859 1.5004434287548065
          1.5089308023452759 1.516996219754219 1.5247691422700882 1.532243773341179 1.539350301027298 1.546146184206009
          1.5526614487171173 1.5588395148515701 1.5646979361772537 1.5702315270900726 1.5754382908344269 1.5803440660238266
          1.5848806202411652 1.5890830159187317 1.5929697006940842 1.596532791852951 1.5997787863016129 1.6027189046144485
          1.6053610742092133 1.6077375560998917 0.9681377336382866 0.9739248603582382 0.9796719700098038 0.9853527322411537
          0.9908733814954758 0.9961487725377083 0.9831103086471558 0.987408235669136 0.9727803096175194 0.9756955280900002
          0.9777822569012642 0.9412215873599052 0.9411032050848007 0.9396292418241501 0.9366933330893517 0.9672483503818512
          0.9434739351272583 0.9178962484002113 0.8948186486959457 0.8698650896549225 0.8751410469412804 0.8601818904280663
          0.8258718997240067 0.8315321654081345 0.8226451948285103 0.8229332491755486 0.8239881172776222 0.8285016342997551
          0.8343226611614227 0.8482560813426971 0.8622425720095634 0.8747794255614281 0.9021904170513153 0.9359076619148254
          0.9539223238825798 0.9730077013373375 1.0210372135043144 1.031824104487896 1.0407156869769096 1.0464378967881203
          1.0277592837810516 1.0618422329425812 1.0784514173865318 1.0714556574821472 1.086279273033142 1.1011020168662071
          1.136981450021267 1.1518848240375519 1.1665446534752846 1.1809750720858574 1.2412790581583977 1.2560231611132622
          1.270364597439766 1.2485802471637726 1.286190152168274 1.2993666157126427 1.3375907018780708 1.3509394004940987
          1.364220567047596 1.3774132952094078 1.3903671354055405 1.4030536264181137 1.375576727092266 1.3876555263996124
          1.3995662182569504 1.4112792313098907 1.422820508480072 1.434245228767395 1.4455503672361374 1.4567525833845139
          1.4677995890378952 1.4365211129188538 1.4469462484121323 1.4571154415607452 1.4670395851135254 1.4766853004693985
          1.486093446612358 1.4952839314937592 1.5041665732860565 1.5126588195562363 1.5207670778036118 1.5285660475492477
          1.5360307842493057 1.5431268811225891 1.5499161630868912 1.556378424167633 1.5625050961971283 1.5682960897684097
          1.5737425833940506 1.5788732022047043 1.5836512446403503 1.5880521833896637 1.592116728425026 1.5958478897809982
          1.5992493331432343 1.6023138612508774 1.6050867140293121 1.6075529754161835 1.609823763370514 1.611807867884636
          0.9627993702888489 0.9684134423732758 0.9739962518215179 0.9794803708791733 0.9847903251647949 0.9898757785558701
          0.9766345992684364 0.9626465812325478 0.9659302905201912 0.9684649556875229 0.9701081067323685 0.9336297586560249
          0.9330712258815765 0.9312202483415604 0.9351016283035278 0.939527116715908 0.9148963242769241 0.9077541679143906
          0.8895852342247963 0.8852881714701653 0.8667740225791931 0.8136797696352005 0.8242198899388313 0.8099266588687897
          0.8130795955657959 0.8162496834993362 0.8183392882347107 0.8269345164299011 0.8397584483027458 0.8538855463266373
          0.8705152273178101 0.892613910138607 0.9245937615633011 0.9423106461763382 0.9612545371055603 1.0065589770674706
          1.0181598663330078 1.0282940790057182 1.0185474678874016 1.019320398569107 1.0530360117554665 1.0698648169636726
          1.064339965581894 1.0794747397303581 1.0946193635463715 1.1307554095983505 1.146144524216652 1.161291852593422
          1.1762289702892303 1.2367677241563797 1.2520957365632057 1.2669414654374123 1.2461294382810593 1.284139260649681
          1.3225393518805504 1.3363219946622849 1.3500154986977577 1.363646037876606 1.3772035986185074 1.3904940336942673
          1.403413102030754 1.3764356598258018 1.3887869641184807 1.4009598642587662 1.412929892539978 1.4247222691774368
          1.436387374997139 1.4479230344295502 1.459331214427948 1.4286346137523651 1.4394851922988892 1.4500711113214493
          1.4603937864303589 1.4704668819904327 1.4802394956350327 1.4897629022598267 1.4990476369857788 1.508000761270523
          1.5164921879768372 1.524637833237648 1.5324567258358002 1.539902850985527 1.5469823777675629 1.5537392795085907
          1.5601530522108078 1.566216841340065 1.5719259083271027 1.5772863030433655 1.5823183357715607 1.5869316756725311
          1.5911931544542313 1.595104992389679 1.5986765176057816 1.6018919944763184 1.6047811806201935 1.6073611229658127
          1.6097228974103928 1.611802026629448 1.6136236190795898 1.615211233496666 0.9289750382304192 0.9628526568412781
          0.9682168141007423 0.9734630584716797 0.9785508438944817 0.9658483043313026 0.9700772911310196 0.955943189561367
          0.9588888585567474 0.9610661417245865 0.9258411750197411 0.9259938225150108 0.9250175133347511 0.9041890799999237
          0.9523337557911873 0.9112483561038971 0.9052362740039825 0.9067608490586281 0.861696794629097 0.8575515672564507
          0.8102202415466309 0.7953384965658188 0.807960756123066 0.7996282428503036 0.8055076822638512 0.810687705874443
          0.8170594647526741 0.8300417065620422 0.8446630164980888 0.8608899861574173 0.8824254497885704 0.9050214290618896
          0.9306415840983391 0.9597451612353325 0.9923550263047218 1.0046224519610405 1.028481975197792 1.0082618072628975
          1.0004138797521591 1.0439994484186172 1.0610459223389626 1.0569548308849335 1.072375312447548 1.087826058268547
          1.124119482934475 1.139994241297245 1.1556690484285355 1.1710908561944962 1.23186744004488 1.2477452382445335
          1.266188606619835 1.291475087404251 1.3062622547149658 1.320692203938961 1.3349068760871887 1.3489836528897285
          1.3629917800426483 1.376889318227768 1.3905896469950676 1.3645382672548294 1.3772918954491615 1.3899410516023636
          1.4023802876472473 1.414613276720047 1.4266914278268814 1.4386040419340134 1.4503816962242126 1.4620188921689987
          1.4315061122179031 1.4425481259822845 1.4533074796199799 1.4637861400842667 1.4740106761455536 1.4839133620262146
          1.4935476183891296 1.5029276311397552 1.5119158774614334 1.5204295963048935 1.5286069810390472 1.5364396423101425
          1.5438586473464966 1.5509245693683624 1.5576281547546387 1.5639794617891312 1.5699649304151535 1.5755774080753326
          1.5808449387550354 1.5857175141572952 1.5901909172534943 1.5942953824996948 1.5980444997549057 1.6014280319213867
          1.6044621020555496 1.6071640849113464 1.6096011698246002 1.6117821633815765 1.6136622428894043 1.6153258234262466
          1.6167017221450806 1.617800533771515 0.652148712426424 0.7172636538743973 0.9621692970395088 0.967453844845295
          0.955101266503334 0.9594840630888939 0.9459335058927536 0.9491921216249466 0.9517745897173882 0.9356312230229378
          0.9184535443782806 0.918239526450634 0.9168344587087631 0.9209549650549889 0.9249520003795624 0.9019479006528854
          0.9184196889400482 0.8615811616182327 0.8616186752915382 0.8382999151945114 0.8012838140130043 0.7907768115401268
          0.781743586063385 0.7908214330673218 0.8013590350747108 0.8051726669073105 0.817424975335598 0.8346080780029297
          0.8502975776791573 0.8714214861392975 0.893738828599453 0.9188124909996986 0.9468211382627487 0.978369876742363
          0.9844562858343124 1.0152790397405624 1.0113224983215332 0.9862724766135216 1.0348120108246803 1.0519725382328033
          1.049350030720234 1.0650452449917793 1.0807616040110588 1.1170627027750015 1.1334573104977608 1.1496319323778152