<VTKFile type="PolyData" version="1.0" byte_order="LittleEndian" header_type="UInt64">
  <PolyData>
    <Piece NumberOfPoints="10000" NumberOfVerts="0" NumberOfLines="0" NumberOfStrips="0" NumberOfPolys="9801">
      <PointData>
        <DataArray type="Float32" Name="zvalue" NumberOfComponents="1" format="ascii" RangeMin="0.5681672915816307" RangeMax="1.7583992928266525">
          0.6818409971892834 0.6829083897173405 0.6841708421707153 0.6856404580175877 0.6873407624661922 0.6892940849065781
          0.6914770379662514 0.6738620810210705 0.6763397939503193 0.6791987977921963 0.6823641359806061 0.6859386190772057
          0.6688002571463585 0.6731978468596935 0.6782680749893188 0.6839379966259003 0.690180666744709 0.695809330791235
          0.6987597681581974 0.6726728044450283 0.6762732826173306 0.6281908266246319 0.6067504808306694 0.6402755901217461
          0.6837102174758911 0.7211683988571167 0.7529916167259216 0.7815254479646683 0.8064565137028694 0.8269734904170036
          0.8473747447133064 0.8663060665130615 0.8853835910558701 0.9033777788281441 0.9207017868757248 0.9375160709023476
          0.9537377506494522 0.9697549492120743 0.9854443892836571 1.0008967146277428 1.0162829831242561 1.031649336218834
          1.04686738550663 1.0619203746318817 1.0765688493847847 1.0909571647644043 1.1050127297639847 1.1188000813126564
          1.13238824903965 1.1455882340669632 1.158272534608841 1.1294429749250412 1.1404748260974884 1.1516265720129013
          1.1946437358856201 1.206304408609867 1.217740222811699 1.2288642525672913 1.2398207187652588 1.2506954669952393
          1.2379018366336823 1.2482165321707726 1.2584997713565826 1.2687272727489471 1.2787763178348541 1.2887311428785324
          1.2986092865467072 1.3084585964679718 1.318352572619915 1.3282350674271584 1.3775896951556206 1.387538142502308
          1.3972955122590065 1.4068384990096092 1.416283369064331 1.3851815834641457 1.3942700177431107 1.4032735079526901
          1.4122472703456879 1.4211863279342651 1.4300466924905777 1.438799500465393 1.4474413692951202 1.4559349119663239
          1.4643123894929886 1.4725648015737534 1.480636104941368 1.5186188369989395 1.5266495794057846 1.5345290452241898
          1.5422297418117523 1.5497393310070038 1.557083711028099 1.5642447471618652 1.5711219757795334 1.5665932446718216
          1.6047074347734451 1.6111372709274292 1.4881171584129333 1.493932694196701 0.6816918849945068 0.6827372908592224
          0.6839851513504982 0.6854381002485752 0.6871341206133366 0.6890857554972172 0.691287137567997 0.6738174818456173
          0.6763219200074673 0.679199568927288 0.6824142001569271 0.6853935159742832 0.6691095903515816 0.6735669113695621
          0.6787071041762829 0.684501226991415 0.6908369362354279 0.6964434757828712 0.6991256736218929 0.6998697258532047
          0.6742385290563107 0.6246497295796871 0.6082430705428123 0.6454344019293785 0.689147986471653 0.7262500301003456
          0.7578859850764275 0.7861628979444504 0.8083739131689072 0.8316088616847992 0.8520384952425957 0.8715803921222687
          0.890608012676239 0.9087373912334442 0.926245853304863 0.9431718066334724 0.9596092328429222 0.975867286324501
          0.9916427433490753 1.0072634667158127 1.0229303538799286 1.038402959704399 1.0538318306207657 1.0688275843858719
          1.0835836678743362 1.0980044975876808 1.1121229529380798 1.1260858848690987 1.1397439911961555 1.1528593450784683
          1.1450245082378387 1.1361538916826248 1.147625982761383 1.1904656291007996 1.2025294974446297 1.2143198624253273
          1.2258840575814247 1.2371063604950905 1.2482534423470497 1.259304255247116 1.246405929327011 1.2569193914532661
          1.2673835530877113 1.2776785716414452 1.2878465503454208 1.2979443296790123 1.307991974055767 1.3180739283561707
          1.3281513899564743 1.3776925802230835 1.3878748267889023 1.3978366255760193 1.4075545147061348 1.417173132300377
          1.3861989080905914 1.3954517766833305 1.4046108946204185 1.4137402474880219 1.4228346049785614 1.4318345040082932
          1.4407303929328918 1.4494944661855698 1.4581206291913986 1.466623529791832 1.4749829173088074 1.5130621641874313
          1.5213049054145813 1.5294352322816849 1.5374079793691635 1.545178309082985 1.5527598857879639 1.560168594121933
          1.5673769861459732 1.5742668211460114 1.6125676482915878 1.607969269156456 1.6144048124551773 1.491141900420189
          1.4969662427902222 1.502566397190094 0.6815445274114609 0.6825670525431633 0.6837961450219154 0.6852337270975113
          0.6869189739227295 0.6888743825256824 0.6715395152568817 0.6737658903002739 0.6763035319745541 0.6791987307369709
          0.6824514828622341 0.6654840335249901 0.6694192141294479 0.6739434041082859 0.6791553683578968 0.6850756704807281
          0.6915001533925533 0.6970961876213551 0.7063125558197498 0.6997501254081726 0.6716409549117088 0.6213481239974499
          0.6104040667414665 0.650738961994648 0.69460579007864 0.7312290295958519 0.7627969086170197 0.7907861173152924
          0.813547395169735 0.8362362906336784 0.8567970916628838 0.876826249063015 0.895949698984623 0.9142294675111771
          0.9319397658109665 0.9489665627479553 0.9656354263424873 0.9820126593112946 0.9979646056890488 1.013803280889988
          1.0296329781413078 1.0453303903341293 1.0607765018939972 1.07582688331604 1.0906805023550987 1.1051977947354317
          1.1194144263863564 1.1335055977106094 1.1471095979213715 1.1503969728946686 1.1319595351815224 1.1433979719877243
          1.1860002353787422 1.19850342720747 1.2106412276625633 1.2226059436798096 1.234218217432499 1.2456666678190231
          1.2569952309131622 1.2682117745280266 1.25524190813303 1.2659415677189827 1.276491217315197 1.2869076430797577
          1.2972294241189957 1.307486079633236 1.317771427333355 1.3280351012945175 1.377776637673378 1.3881867304444313
          1.3983654901385307 1.4082617312669754 1.4180757105350494 1.3872399032115936 1.3966617584228516 1.4059929177165031
          1.4152761697769165 1.4245295822620392 1.4336885213851929 1.4427277892827988 1.4516074359416962 1.4603641480207443
          1.4689923822879791 1.4774590879678726 1.515730619430542 1.524076133966446 1.5323047935962677 1.5403635203838348
          1.5482006669044495 1.55585116147995 1.5633322149515152 1.570544794201851 1.5774711221456528 1.6159008890390396
          1.6113034337759018 1.6177362650632858 1.4942371547222137 1.5000506937503815 1.5056126117706299 1.5109241008758545
          0.6814002953469753 0.6823934987187386 0.6836074367165565 0.6850274205207825 0.6866968907415867 0.6694947779178619
          0.6714683175086975 0.6737182959914207 0.6762852743268013 0.6792013868689537 0.6622534207999706 0.6657439544796944
          0.6697331368923187 0.674326729029417 0.6796376891434193 0.6856618784368038 0.6922609582543373 0.7251131422817707
          0.7069457806646824 0.699384368956089 0.6688175648450851 0.6182333827018738 0.6131620369851589 0.6562736928462982
          0.7000981047749519 0.7362406775355339 0.7677354291081429 0.7953722551465034 0.8184602111577988 0.8409876450896263
          0.8616551086306572 0.8821691945195198 0.9014241695404053 0.9198747128248215 0.9377390965819359 0.9549200758337975
          0.9718296378850937 0.9882750138640404 1.0044188499450684 1.0205296128988266 1.0364802554249763 1.052376203238964
          1.0678111910820007 1.0829676166176796 1.0979011803865433 1.1124975606799126 1.1269112676382065 1.1410079970955849
          1.1546302437782288 1.1472838893532753 1.138864740729332 1.1508448645472527 1.1941831335425377 1.2067427188158035
          1.2190628200769424 1.2311394214630127 1.2429039776325226 1.2545424103736877 1.2660570740699768 1.2774001210927963
          1.2886335104703903 1.275210626423359 1.2858948335051537 1.2964508682489395 1.3069358244538307 1.3174092546105385
          1.3279116824269295 1.3778330758213997 1.3884702771902084 1.3988830596208572 1.4089675098657608 1.4189764112234116
          1.3883014842867851 1.3978972285985947 1.4074125215411186 1.4168525338172913 1.4262585043907166 1.406876876950264
          1.415877878665924 1.424721285700798 1.4625992476940155 1.4714295119047165 1.5098522901535034 1.5184682458639145
          1.5269184559583664 1.5352437794208527 1.5433776378631592 1.52054001390934 1.528220921754837 1.5665703862905502
          1.5737881809473038 1.5807536244392395 1.6193529814481735 1.6147503554821014 1.6211303621530533 1.4973862171173096
          1.503184586763382 1.508702889084816 1.51398004591465 1.519013911485672 0.6812578700482845 0.6822228953242302
          0.6834185905754566 0.6848094239830971 0.686457596719265 0.6694112196564674 0.6713942624628544 0.6736755631864071
          0.676267683506012 0.6593138314783573 0.6624680459499359 0.666006438434124 0.6700534299015999 0.6747205555438995
          0.6801276579499245 0.6866742670536041 0.7203043885529041 0.7053504884243011 0.7074992582201958 0.6988924071192741
          0.6657512448728085 0.6153348423540592 0.6164926439523697 0.6619987115263939 0.7055891007184982 0.7413250729441643
          0.7726873010396957 0.7982072234153748 0.8234648033976555 0.8458492234349251 0.867143914103508 0.8876330181956291
          0.9070490151643753 0.9256820306181908 0.9436581656336784 0.9610411152243614 0.9781124219298363 0.9946647807955742
          1.011025421321392 1.0273707658052444 1.0435206070542336 1.0594310909509659 1.0749369710683823 1.090204432606697
          1.105274148285389 1.1199769154191017 1.134528174996376 1.1486202329397202 1.141939327120781 1.1549284905195236
          1.1464541926980019 1.189571589231491 1.202545627951622 1.2152608409523964 1.2277779579162598 1.239953190088272
          1.2519277930259705 1.2637411132454872 1.2754403948783875 1.286930851638317 1.2983140721917152 1.3094278499484062
          1.295609936118126 1.3063365519046783 1.3170197680592537 1.3277312591671944 1.3778542131185532 1.3887368142604828
          1.3993828743696213 1.4096766114234924 1.4198902323842049 1.3803932070732117 1.371412232518196 1.3808551654219627
          1.3902160972356796 1.3995531648397446 1.4087934494018555 1.417889729142189 1.4268401861190796 1.4356686919927597
          1.5035155415534973 1.5125299096107483 1.5212721228599548 1.5298274457454681 1.538132295012474 1.5157572627067566
          1.5235572308301926 1.5311584174633026 1.5698702782392502 1.5771032124757767 1.5841045528650284 1.590864285826683
          1.5861019939184189 1.6245872229337692 1.5005906075239182 1.506347894668579 1.5118350088596344 1.5170715749263763
          1.5220540463924408 1.5267714262008667 0.6811097823083401 0.6820530705153942 0.6832186207175255 0.6846104338765144
          0.6675997972488403 0.6693273559212685 0.6713218502700329 0.6736363917589188 0.656715203076601 0.6594936847686768
          0.6626793332397938 0.6662758514285088 0.670380637049675 0.6751312054693699 0.6814076900482178 0.7137367092072964
          0.7004578597843647 0.7062878981232643 0.7080245800316334 0.6983445324003696 0.6624346859753132 0.6127480790019035
          0.6204669550061226 0.6676601320505142 0.7110624015331268 0.7464869618415833 0.7776269242167473 0.8033838793635368
          0.8285402357578278 0.8508247807621956 0.872671864926815 0.8932369202375412 0.9127951636910439 0.9316398873925209
          0.9496931806206703 0.9673290625214577 0.9844858273863792 1.0012147724628448 1.0178510025143623 1.0343432649970055
          1.0506677478551865 1.0665694177150726 1.082191787660122 1.0976088047027588 1.1127678751945496 1.1276369988918304
          1.1422673761844635 1.156421884894371 1.1496246978640556 1.1417119577527046 1.18464245647192 1.198042556643486
          1.2111942693591118 1.224107339978218 1.236745037138462 1.249110847711563 1.2612804621458054 1.2733142971992493
          1.285122662782669 1.2967693582177162 1.3082905188202858 1.3197160139679909 1.3309793248772621 1.3165972232818604
          1.3275276646018028 1.3778338134288788 1.3889575749635696 1.3999526277184486 1.3833830133080482 1.3935342356562614
          1.3629511892795563 1.3726852536201477 1.3823143988847733 1.3918554931879044 1.4013547450304031 1.4107401371002197
          1.41999651491642 1.4291148334741592 1.4675736874341965 1.4769904613494873 1.5156173259019852 1.5247156620025635
          1.5024490058422089 1.5107626020908356 1.518871545791626 1.5267467200756073 1.5344129353761673 1.5731684267520905
          1.580487996339798 1.587520256638527 1.594284251332283 1.58953158557415 1.6281171441078186 1.503848746418953
          1.5095581859350204 1.5150076746940613 1.5201957076787949 1.5251144468784332 1.5297665148973465 1.5341654121875763
          0.6809697970747948 0.6818842105567455 0.6830118261277676 0.6661073043942451 0.6675122007727623 0.6692464835941792
          0.6712557449936867 0.654440276324749 0.6568635664880276 0.6596785001456738 0.6628952920436859 0.6665513329207897
          0.6707316674292088 0.6762362085282803 0.707415871322155 0.7143272049725056 0.7012401074171066 0.7071739584207535
          0.7085124775767326 0.6976841501891613 0.6589177139103413 0.6105923354625702 0.6248257458209991 0.673401452600956
          0.7165315821766853 0.7516751512885094 0.779836006462574 0.808629684150219 0.8336502835154533 0.8559130653738976
          0.8783116415143013 0.898964449763298 0.9186969995498657 0.9377108812332153 0.9559094905853271 0.9736995026469231
          0.9909796491265297 1.0079353228211403 1.0248437896370888 1.0414698421955109 1.0578386634588242 1.0738463923335075
          1.0895714834332466 1.1051818132400513 1.1204441487789154 1.1355189085006714 1.1501381248235703 1.1439945250749588
          1.1576114743947983 1.1793495789170265 1.1932262852787971 1.2068081498146057 1.2201692759990692 1.2332638949155807
          1.2460500448942184 1.2586225345730782 1.2709980458021164 1.2831987291574478 1.295139156281948 1.3069348856806755
          1.3186485320329666 1.3302583247423172 1.3417359963059425 1.3920198008418083 1.4038497060537338 1.3626692444086075
          1.3734914660453796 1.3840696439146996 1.3944591134786606 1.364076741039753 1.374003566801548 1.383813813328743
          1.3935488164424896 1.4032030254602432 1.418410837650299 1.4512506574392319 1.4607868492603302 1.4701284766197205
          1.4792729765176773 1.4881988614797592 1.496921956539154 1.505467176437378 1.5138724446296692 1.5220649242401123
          1.530015990138054 1.5377450585365295 1.545138493180275 1.5839438140392303 1.591002956032753 1.5977635383605957
          1.5930160731077194 1.6316964328289032 1.507139652967453 1.5128138065338135 1.5182179361581802 1.523348093032837
          1.5281929224729538 1.532780334353447 1.5370788723230362 1.5410833656787872 0.680834487080574 0.6817081905901432
          0.6826332397758961 0.6660321280360222 0.6674364395439625 0.6691663712263107 0.6524212695658207 0.6545637026429176
          0.6570247560739517 0.6598672904074192 0.6631169505417347 0.6668534986674786 0.6722832880914211 0.7016719430685043
          0.7079093307256699 0.6948337852954865 0.7022181190550327 0.7080257162451744 0.708948727697134 0.6968788467347622
          0.6550469100475311 0.6089342832565308 0.6296401470899582 0.6792738363146782 0.7218975126743317 0.7569701969623566
          0.7858428955078125 0.8139192387461662 0.838793471455574 0.861927904188633 0.8840363100171089 0.904844842851162
          0.9247732236981392 0.9439071416854858 0.9622750729322433 0.980219379067421 0.9976458698511124 1.014852300286293
          1.0319305881857872 1.0486936271190643 1.0651178732514381 1.0812697187066078 1.0971572771668434 1.112882874906063
          1.1283309310674667 1.1435033306479454 1.1582499891519547 1.1520689204335213 1.1948560923337936 1.1880594491958618
          1.2021038830280304 1.2159044593572617 1.2294768244028091 1.2427364811301231 1.2557161301374435 1.2684986144304276
          1.2810670584440231 1.2933903858065605 1.30546785145998 1.3174772933125496 1.3294057995080948 1.3411961197853088
          1.3658834472298622 1.3777237012982368 1.389330931007862 1.4006382152438164 1.4117325618863106 1.422680675983429
          1.3928052335977554 1.4031944423913956 1.4134690910577774 1.4236588031053543 1.433738723397255 1.4437150359153748
          1.4535551518201828 1.463246926665306 1.4727564305067062 1.4820369631052017 1.4910890758037567 1.4999356120824814
          1.5085880309343338 1.51707524061203 1.5253468304872513 1.5333707183599472 1.541143923997879 1.548550233244896
          1.5874771177768707 1.5945556908845901 1.6013109534978867 1.5965696573257446 1.635334387421608 1.5104803293943405
          1.5161113291978836 1.5214628279209137 1.526520848274231 1.5313019752502441 1.53580242395401 1.5399761945009232
          1.543870210647583 1.547499030828476 0.6806862615048885 0.6814939081668854 0.6648474186658859 0.6659679785370827
          0.6673644185066223 0.6505867466330528 0.6525305472314358 0.6546914577484131 0.657186646014452 0.6600612662732601
          0.6633600108325481 0.6671001799404621 0.6966373547911644 0.702074658125639 0.7083159498870373 0.6957067586481571
          0.7032056823372841 0.7088532634079456 0.7093173302710056 0.6958206072449684 0.6508786343038082 0.6078114844858646
          0.6347992643713951 0.6852733343839645 0.7270833104848862 0.7622761875391006 0.7913564145565033 0.8192936480045319
          0.8440371006727219 0.8676958456635475 0.8898956179618835 0.9108762070536613 0.931009091436863 0.9502382352948189
          0.9688210263848305 0.9869026765227318 1.0044721588492393 1.0219744369387627 1.0391687154769897 1.056007482111454
          1.072568617761135 1.088838629424572 1.1049363911151886 1.1207640171051025 1.1364697366952896 1.1516852378845215
          1.1466917023062706 1.1886384263634682 1.1825248077511787 1.197057232260704 1.211316466331482 1.22538161277771
          1.2391217201948166 1.2525688111782074 1.2657682076096535 1.27873644977808 1.2914791703224182 1.3038824200630188
          1.316196322441101 1.3284407183527946 1.314992569386959 1.3655407130718231 1.3775919824838638 1.389471858739853
          1.4010223597288132 1.4123762920498848 1.423608735203743 1.3940080255270004 1.4046105295419693 1.415102794766426
          1.4254804998636246 1.435736820101738 1.4459070712327957 1.455921247601509 1.4657796174287796 1.4754623621702194
          1.4848793894052505 1.4940676838159561 1.5030375123023987 1.5118007808923721 1.5203819870948792 1.5287278890609741
          1.536812961101532 1.5445952713489532 1.552043855190277 1.5910883396863937 1.5981664061546326 1.6049248427152634
          1.6437848955392838 1.6390109360218048 1.5576248168945312 1.519449532032013 1.5247355699539185 1.5297164022922516
          1.5344215333461761 1.538802370429039 1.5428645461797714 1.5466374307870865 1.5501426309347153 1.553358554840088
          0.6805768348276615 0.663914643228054 0.6647976338863373 0.6659094206988811 0.6670793518424034 0.6507625356316566
          0.6526419259607792 0.6548302695155144 0.6573541276156902 0.6602684706449509 0.665219496935606 0.6921933330595493
          0.6969791799783707 0.7024898305535316 0.6893961057066917 0.696589607745409 0.704116091132164 0.7096749059855938
          0.7096265405416489 0.6946067474782467 0.6464982330799103 0.6073180846869946 0.640311136841774 0.6913204044103622
          0.7324796915054321 0.7649302631616592 0.7969716489315033 0.824778251349926 0.8494107276201248 0.8736091777682304
          0.8959170505404472 0.9170954897999763 0.9374015480279922 0.9567324072122574 0.9754761010408401 0.9936789944767952
          1.0115179345011711 1.0292394906282425 1.0464825257658958 1.0634394064545631 1.0801786482334137 1.0966115668416023
          1.1128990724682808 1.1289329901337624 1.1447476148605347 1.1601449027657509 1.1546266227960587 1.1978038400411606
          1.1915818378329277 1.2063949927687645 1.2209093049168587 1.2352007925510406 1.249148778617382 1.2627935037016869
          1.2761842459440231 1.2893656715750694 1.302176520228386 1.314793050289154 1.302094392478466 1.3142694681882858
          1.3650913536548615 1.377410002052784 1.3895466476678848 1.4013867527246475 1.4129861295223236 1.4245199486613274
          1.3951880037784576 1.4060318768024445 1.4167569428682327 1.4273220151662827 1.4377845227718353 1.44815893471241
          1.458363726735115 1.4683905839920044 1.4782307296991348 1.4878090769052505 1.5273312777280807 1.5367121547460556
          1.5458221286535263 1.5547238737344742 1.5633634179830551 1.571714848279953 1.5795760601758957 1.5556191354990005
          1.5948217958211899 1.6339383274316788 1.6409664452075958 1.6475631594657898 1.6427398920059204 1.5611419677734375
          1.5228245258331299 1.5280299931764603 1.5329428911209106 1.5375431925058365 1.5417910665273666 1.5457367300987244
          1.5493831783533096 1.5527388155460358 1.5557762384414673 1.5585208088159561 0.6791050732135773 0.6639057025313377
          0.6647672243416309 0.6659170500934124 0.649339459836483 0.6508648805320263 0.6527606099843979 0.6549752205610275
          0.6575321890413761 0.661513090133667 0.6881923787295818 0.692490741610527 0.6973253153264523 0.6840663179755211
          0.6901735886931419 0.6975022107362747 0.7049902938306332 0.7104578725993633 0.7098834253847599 0.6931332014501095
          0.6421564519405365 0.6074848175048828 0.6461795717477798 0.6973984315991402 0.738165520131588 0.7713389694690704
          0.8026320785284042 0.8304116576910019 0.8546269088983536 0.8796654865145683 0.9021119400858879 0.9234731569886208
          0.9438972324132919 0.9633923247456551 0.9822901859879494 1.000616617500782 1.0187735706567764 1.0366090759634972
          1.053936593234539 1.0710822492837906 1.0879437923431396 1.1046051755547523 1.121047392487526 1.1373644322156906
          1.153268352150917 1.1688012853264809 1.191207878291607 1.2073055803775787 1.2230879217386246 1.2161084488034248
          1.2308889105916023 1.245373860001564 1.259546883404255 1.273410588502884 1.2870175912976265 1.3003119677305222
          1.3133013769984245 1.3009323999285698 1.3134207054972649 1.3645195290446281 1.3771608546376228 1.3895640894770622
          1.4017071202397346 1.413611814379692 1.425409309566021 1.3963684439659119 1.4074640572071075 1.4184092581272125
          1.4292060285806656 1.4398868530988693 1.4504602402448654 1.4608701169490814 1.4710859507322311 1.4810779094696045
          1.520871177315712 1.5306376069784164 1.5400942116975784 1.549311250448227 1.5583163648843765 1.5670369863510132
          1.6068871468305588 1.6150916665792465 1.6229831278324127 1.6625783294439316 1.6700179725885391 1.6447350978851318
          1.6513811647891998 1.6465204954147339 1.6086262166500092 1.5262274742126465 1.5313517898321152 1.53617762029171
          1.5406383574008942 1.5447676926851273 1.5485831946134567 1.5520769506692886 1.5552551597356796 1.5581298023462296
          1.5607082843780518 1.5630243718624115 0.6632851772010326 0.6639127768576145 0.6646416671574116 0.648268461227417
          0.6494429521262646 0.6509797349572182 0.6528862230479717 0.6551337093114853 0.657474871724844 0.684639360755682
          0.6884118802845478 0.6927793025970459 0.6976999305188656 0.6843392923474312 0.6909581683576107 0.6984279751777649
          0.7058486938476562 0.7112096175551414 0.7101028710603714 0.691437628120184 0.6378901787102222 0.6084022410213947
          0.6522260755300522 0.7035402208566666 0.7438535839319229 0.7771874666213989 0.8083807751536369 0.8360216543078423
          0.8619530275464058 0.8858406618237495 0.9084504693746567 0.9300017654895782 0.9505263045430183 0.9701972752809525
          0.989280954003334 1.0077981799840927 1.0262428522109985 1.0440515726804733 1.0615675821900368 1.0788579657673836
          1.0959418416023254 1.1128381490707397 1.129531316459179 1.1459812819957733 1.16213059425354 1.2049576342105865
          1.2008160129189491 1.2171464562416077 1.2331447675824165 1.226191945374012 1.2412633299827576 1.2560077086091042
          1.2703631073236465 1.2844493389129639 1.2982121258974075 1.2867703959345818 1.2996495813131332 1.3124811127781868
          1.3637814968824387 1.3768142238259315 1.3895395025610924 1.40199975669384 1.4142124503850937 1.4262899234890938
          1.4252417981624603 1.43693108856678 1.4483871161937714 1.459708958864212 1.4708928912878036 1.481952726840973
          1.4928364306688309 1.5035041719675064 1.5139291882514954 1.5542508959770203 1.564386010169983 1.5742260664701462
          1.5837946236133575 1.5931320488452911 1.602154403924942 1.6107787191867828 1.61901393532753 1.6269344836473465
          1.6345182955265045 1.6740434765815735 1.6486531496047974 1.6552593410015106 1.650354653596878 1.6123081743717194
          1.529653161764145 1.5347009599208832 1.5393986105918884 1.5437237173318863 1.547714963555336 1.5513753592967987
          1.5547069311141968 1.5577030181884766 1.5604101121425629 1.5628126114606857 1.5650219470262527 1.5669466406106949
          0.6633462384343147 0.6468514576554298 0.6475141942501068 0.6483915820717812 0.6495517082512379 0.6511062383651733
          0.6530338376760483 0.65523861348629 0.6814675070345402 0.6848112531006336 0.6886520124971867 0.6930880360305309
          0.679349597543478 0.6850214563310146 0.691751629114151 0.6993443630635738 0.706680990755558 0.7118994258344173
          0.7102473899722099 0.68951565772295 0.6335763670504093 0.6100870557129383 0.6584407314658165 0.7096548452973366
          0.7468921020627022 0.7831164747476578 0.8142414912581444 0.8417681902647018 0.8680686801671982 0.8921820968389511
          0.914964459836483 0.9367092698812485 0.9573292210698128 0.9771864339709282 0.9964063838124275 1.0152360647916794
          1.0337615609169006 1.0516787394881248 1.0693815052509308 1.0868536904454231 1.1041985154151917 1.1213350966572762
          1.1382778882980347 1.1549062579870224 1.1971724331378937 1.2147538289427757 1.2325946688652039 1.227386198937893
          1.2436643913388252 1.2596604451537132 1.275387167930603 1.2670109272003174 1.281604342162609 1.295919507741928
          1.2849369794130325 1.298244632780552 1.3114346861839294 1.3628855347633362 1.376448504626751 1.4159140810370445
          1.4290473610162735 1.4419272691011429 1.45460694283247 1.4265198856592178 1.4384552389383316 1.4501645863056183
          1.4617322534322739 1.4731587022542953 1.4844361394643784 1.4955562055110931 1.5064455270767212 1.5470492392778397
          1.5576325803995132 1.5679210126399994 1.5778847932815552 1.5875811874866486 1.5970193445682526 1.6061179041862488
          1.6147495210170746 1.6230279207229614 1.6309732794761658 1.6385429352521896 1.6781472265720367 1.6851873993873596
          1.6591995060443878 1.654237613081932 1.6160229444503784 1.5331104397773743 1.5380592197179794 1.5425923317670822
          1.5467776507139206 1.550615906715393 1.5541163980960846 1.5572614073753357 1.5600827187299728 1.5625968128442764
          1.5648949146270752 1.5669124722480774 1.5686743259429932 1.5702045410871506 0.6466165743768215 0.6470294557511806
          0.6476713232696056 0.6485217772424221 0.6496743820607662 0.6512494310736656 0.6532960832118988 0.6805122047662735
          0.6815877072513103 0.6850045286118984 0.6889082565903664 0.6935002207756042 0.6799650005996227 0.6857366487383842
          0.6925746500492096 0.7002234198153019 0.7075386233627796 0.7125503420829773 0.7103725112974644 0.6873160600662231
          0.6292715519666672 0.6124794594943523 0.6650309637188911 0.7157539650797844 0.7538448870182037 0.7891479507088661
          0.8201989009976387 0.8487372398376465 0.8743846267461777 0.8986936211585999 0.9216569066047668 0.9435432478785515
          0.9642912447452545 0.9843386188149452 1.0037494823336601 1.0229172930121422 1.0414042845368385 1.0594859421253204
          1.077410526573658 1.0951313450932503 1.112753301858902 1.1301561743021011 1.1472729966044426 1.188884697854519
          1.207323245704174 1.2252633646130562 1.242521032691002 1.2601358294487 1.2772486805915833 1.270887941122055
          1.2869521975517273 1.3024891465902328 1.3180119693279266 1.3076759278774261 1.3217895105481148 1.373279094696045
          1.3877027034759521 1.4018530696630478 1.4157471656799316 1.4292576164007187 1.4424569308757782 1.4554722756147385
          1.4277397990226746 1.4399521201848984 1.4519792199134827 1.463797152042389 1.4754747301340103 1.4869766682386398
          1.4983193278312683 1.509454533457756 1.5503078550100327 1.5610633790493011 1.571534126996994 1.581633284687996
          1.5914507508277893 1.6010035276412964 1.610147312283516 1.6188095808029175 1.6271285116672516 1.6350980997085571
          1.6426481902599335 1.6823455095291138 1.6893442571163177 1.6632002294063568 1.6581566631793976 1.6197596192359924
          1.5365833342075348 1.5413722544908524 1.5457648187875748 1.5497931391000748 1.5534689277410507 1.5567805469036102
          1.5597442537546158 1.5623780637979507 1.5647491812705994 1.566866710782051 1.56868577003479 1.5702895820140839
          1.571608379483223 1.5726516097784042 0.646820891648531 0.6472077965736389 0.6478332988917828 0.6486696302890778
          0.6498228162527084 0.6513819769024849 0.6546288095414639 0.6787828728556633 0.6817671693861485 0.6852141432464123
          0.6891629919409752 0.6755591668188572 0.6805920153856277 0.6864649802446365 0.6934113427996635 0.7010945379734039
          0.7083797976374626 0.7131746672093868 0.710470512509346 0.6849256530404091 0.6250324659049511 0.6156819015741348
          0.6716476157307625 0.7217707112431526 0.7601821348071098 0.7952971085906029 0.826308086514473 0.8551424294710159
          0.8809230923652649 0.9053642973303795 0.9285327643156052 0.9505623877048492 0.9714379534125328 0.9917115420103073
          1.0113810822367668 1.0306505858898163 1.0492348670959473 1.067572571337223 1.0856826603412628 1.1037265062332153
          1.121639296412468 1.1392664834856987 1.1781157702207565 1.1991111785173416 1.2178469896316528 1.236039400100708