<VTKFile type="PolyData" version="1.0" byte_order="LittleEndian" header_type="UInt64">
  <PolyData>
    <Piece NumberOfPoints="100" NumberOfVerts="0" NumberOfLines="0" NumberOfStrips="0" NumberOfPolys="81">
      <PointData>
        <DataArray type="Float32" Name="zvalue" NumberOfComponents="1" format="ascii" RangeMin="0.6643822267651558" RangeMax="1.8946832865476608">
          0.8621006309986115 0.8879040777683258 1.0310995504260063 0.9024378694593906 0.8984780870378017 0.8868760764598846
          0.8748363181948662 0.8666911870241165 0.8605753779411316 0.8539187237620354 0.9134733229875565 0.8916189298033714
          0.8494360148906708 0.9987071864306927 0.9731033854186535 0.947905145585537 0.926029022783041 0.9125505574047565
          0.9008169546723366 0.8888904973864555 1.00502347946167 0.9664233922958374 0.901878509670496 1.13716796413064
          1.083272971212864 1.0326284505426884 0.9943355917930603 0.9694459326565266 0.9496485702693462 0.9291385523974895
          1.085197202861309 0.8615825846791267 1.1809397116303444 1.288004957139492 1.2290779277682304 1.1458896435797215
          1.0808215849101543 1.0369770117104053 1.0011412724852562 0.9731026664376259 0.8338517174124718 0.814256127923727
          1.2827564887702465 1.4089614674448967 1.3709282018244267 1.2689694911241531 1.1757872216403484 1.106081910431385
          1.058895017951727 1.0765989050269127 0.7528709881007671 0.8223918303847313 1.0877798348665237 1.2630224153399467
          1.3357428833842278 1.4323115348815918 1.4383912831544876 1.300284955650568 1.6133271530270576 1.4788765832781792
          0.7869573384523392 0.8449077904224396 0.87998391315341 0.9098871760070324 1.027039498090744 1.3134749010205269
          1.3379239588975906 1.8946832865476608 1.7050139978528023 1.6478791311383247 0.6847567930817604 0.7016917355358601
          0.7573836855590343 0.8443713150918484 0.9144385121762753 0.9228568449616432 0.9831444621086121 1.717791810631752
          1.8132900446653366 1.7180920392274857 0.6643822267651558 0.666150651872158 0.7097273543477058 0.7131369970738888
          0.6964402720332146 0.720259502530098 0.7483642511069775 0.7916904538869858 1.406632274389267 1.6045103669166565
          0.6889448836445808 0.6813389584422112 0.6851943880319595 0.6744298562407494 0.6655238270759583 0.66591377556324
          0.6736214496195316 0.685960590839386 0.8064205832779408 1.0299564898014069 
        </DataArray>
      </PointData>
      <CellData>
        <DataArray type="Float32" Name="averaged zvalue" NumberOfComponents="1" format="ascii" RangeMin="0.6752041801810265" RangeMax="1.782694784924388">
          0.8887742403894663 0.9150146432220936 0.9454201553016901 0.9431816320866346 0.9265906736254692 0.9089116407558322
          0.8950267713516951 0.8851585192605853 0.8760503884404898 0.9441347811371088 0.9023392116650939 0.9717974187806249
          1.0480628767982125 1.0092274881899357 0.9752245526760817 0.9505902761593461 0.9331155037507415 0.917123643681407
          0.9795566648244858 0.9777060495689511 1.126997785642743 1.1843809550628066 1.122717248275876 1.0634188177064061
          1.0203950302675366 0.9893031967803836 0.9632577653974295 0.8987219082191586 1.0348837282508612 1.290165656246245
          1.3242431385442615 1.253716316074133 1.1678669853135943 1.0999169321730733 1.0507738031446934 1.0274344654753804
          0.8058426659554243 1.0017960704863071 1.2606300516054034 1.3446637419983745 1.3519880278035998 1.3288648827001452
          1.2551363427191973 1.2696472592651844 1.306924414820969 0.8017819868400693 0.9087658422067761 1.0351683348417282
          1.1339229932054877 1.2771422043442726 1.3805254194885492 1.4928208710625768 1.6283273482695222 1.611274216324091
          0.7545784143730998 0.795991781167686 0.8479065224528313 0.923934125341475 1.0444524390622973 1.1393500417470932
          1.4833858795464039 1.782694784924388 1.7210688032209873 0.6792453518137336 0.7087383568286896 0.7561548380181193
          0.7920967740938067 0.8134987829253078 0.8436562651768327 1.0602477444335818 1.4323511458933353 1.6356311812996864
          0.6752041801810265 0.6856028381735086 0.6956221489235759 0.6873827381059527 0.6870343443006277 0.7020397447049618
          0.7249091863632202 0.9226759755983949 1.2118799285963178 
        </DataArray>
      </CellData>
      <Points>
        <DataArray type="Float32" Name="Points" NumberOfComponents="3" format="ascii" RangeMin="-1.0" RangeMax="1.8946832865476608">
          -1.0 -1.0 0.8621006309986115 -0.7777777777777778 -1.0 0.8879040777683258
          -0.5555555555555556 -1.0 1.0310995504260063 -0.33333333333333337 -1.0 0.9024378694593906
          -0.11111111111111116 -1.0 0.8984780870378017 0.11111111111111116 -1.0 0.8868760764598846
          0.33333333333333326 -1.0 0.8748363181948662 0.5555555555555554 -1.0 0.8666911870241165
          0.7777777777777777 -1.0 0.8605753779411316 1.0 -1.0 0.8539187237620354
          -1.0 -0.7777777777777778 0.9134733229875565 -0.7777777777777778 -0.7777777777777778 0.8916189298033714
          -0.5555555555555556 -0.7777777777777778 0.8494360148906708 -0.33333333333333337 -0.7777777777777778 0.9987071864306927
          -0.11111111111111116 -0.7777777777777778 0.9731033854186535 0.11111111111111116 -0.7777777777777778 0.947905145585537
          0.33333333333333326 -0.7777777777777778 0.926029022783041 0.5555555555555554 -0.7777777777777778 0.9125505574047565
          0.7777777777777777 -0.7777777777777778 0.9008169546723366 1.0 -0.7777777777777778 0.8888904973864555
          -1.0 -0.5555555555555556 1.00502347946167 -0.7777777777777778 -0.5555555555555556 0.9664233922958374
          -0.5555555555555556 -0.5555555555555556 0.901878509670496 -0.33333333333333337 -0.5555555555555556 1.13716796413064
          -0.11111111111111116 -0.5555555555555556 1.083272971212864 0.11111111111111116 -0.5555555555555556 1.0326284505426884
          0.33333333333333326 -0.5555555555555556 0.9943355917930603 0.5555555555555554 -0.5555555555555556 0.9694459326565266
          0.7777777777777777 -0.5555555555555556 0.9496485702693462 1.0 -0.5555555555555556 0.9291385523974895
          -1.0 -0.33333333333333337 1.085197202861309 -0.7777777777777778 -0.33333333333333337 0.8615825846791267
          -0.5555555555555556 -0.33333333333333337 1.1809397116303444 -0.33333333333333337 -0.33333333333333337 1.288004957139492
          -0.11111111111111116 -0.33333333333333337 1.2290779277682304 0.11111111111111116 -0.33333333333333337 1.1458896435797215
          0.33333333333333326 -0.33333333333333337 1.0808215849101543 0.5555555555555554 -0.33333333333333337 1.0369770117104053
          0.7777777777777777 -0.33333333333333337 1.0011412724852562 1.0 -0.33333333333333337 0.9731026664376259
          -1.0 -0.11111111111111116 0.8338517174124718 -0.7777777777777778 -0.11111111111111116 0.814256127923727
          -0.5555555555555556 -0.11111111111111116 1.2827564887702465 -0.33333333333333337 -0.11111111111111116 1.4089614674448967
          -0.11111111111111116 -0.11111111111111116 1.3709282018244267 0.11111111111111116 -0.11111111111111116 1.2689694911241531
          0.33333333333333326 -0.11111111111111116 1.1757872216403484 0.5555555555555554 -0.11111111111111116 1.106081910431385
          0.7777777777777777 -0.11111111111111116 1.058895017951727 1.0 -0.11111111111111116 1.0765989050269127
          -1.0 0.11111111111111116 0.7528709881007671 -0.7777777777777778 0.11111111111111116 0.8223918303847313
          -0.5555555555555556 0.11111111111111116 1.0877798348665237 -0.33333333333333337 0.11111111111111116 1.2630224153399467
          -0.11111111111111116 0.11111111111111116 1.3357428833842278 0.11111111111111116 0.11111111111111116 1.4323115348815918
          0.33333333333333326 0.11111111111111116 1.4383912831544876 0.5555555555555554 0.11111111111111116 1.300284955650568
          0.7777777777777777 0.11111111111111116 1.6133271530270576 1.0 0.11111111111111116 1.4788765832781792
          -1.0 0.33333333333333326 0.7869573384523392 -0.7777777777777778 0.33333333333333326 0.8449077904224396
          -0.5555555555555556 0.33333333333333326 0.87998391315341 -0.33333333333333337 0.33333333333333326 0.9098871760070324
          -0.11111111111111116 0.33333333333333326 1.027039498090744 0.11111111111111116 0.33333333333333326 1.3134749010205269
          0.33333333333333326 0.33333333333333326 1.3379239588975906 0.5555555555555554 0.33333333333333326 1.8946832865476608
          0.7777777777777777 0.33333333333333326 1.7050139978528023 1.0 0.33333333333333326 1.6478791311383247
          -1.0 0.5555555555555554 0.6847567930817604 -0.7777777777777778 0.5555555555555554 0.7016917355358601
          -0.5555555555555556 0.5555555555555554 0.7573836855590343 -0.33333333333333337 0.5555555555555554 0.8443713150918484
          -0.11111111111111116 0.5555555555555554 0.9144385121762753 0.11111111111111116 0.5555555555555554 0.9228568449616432
          0.33333333333333326 0.5555555555555554 0.9831444621086121 0.5555555555555554 0.5555555555555554 1.717791810631752
          0.7777777777777777 0.5555555555555554 1.8132900446653366 1.0 0.5555555555555554 1.7180920392274857
          -1.0 0.7777777777777777 0.6643822267651558 -0.7777777777777778 0.7777777777777777 0.666150651872158
          -0.5555555555555556 0.7777777777777777 0.7097273543477058 -0.33333333333333337 0.7777777777777777 0.7131369970738888
          -0.11111111111111116 0.7777777777777777 0.6964402720332146 0.11111111111111116 0.7777777777777777 0.720259502530098
          0.33333333333333326 0.7777777777777777 0.7483642511069775 0.5555555555555554 0.7777777777777777 0.7916904538869858
          0.7777777777777777 0.7777777777777777 1.406632274389267 1.0 0.7777777777777777 1.6045103669166565
          -1.0 1.0 0.6889448836445808 -0.7777777777777778 1.0 0.6813389584422112
          -0.5555555555555556 1.0 0.6851943880319595 -0.33333333333333337 1.0 0.6744298562407494
          -0.11111111111111116 1.0 0.6655238270759583 0.11111111111111116 1.0 0.66591377556324
          0.33333333333333326 1.0 0.6736214496195316 0.5555555555555554 1.0 0.685960590839386
          0.7777777777777777 1.0 0.8064205832779408 1.0 1.0 1.0299564898014069
        </DataArray>
      </Points>
      <Verts>
        <DataArray type="Int64" Name="connectivity" format="ascii" RangeMin="0" RangeMax="99">
        </DataArray>
        <DataArray type="Int64" Name="offsets" format="ascii" RangeMin="1" RangeMax="100">
        </DataArray>
      </Verts>
      <Lines>
        <DataArray type="Int64" Name="connectivity" format="ascii" RangeMin="0" RangeMax="80">
        </DataArray>
        <DataArray type="Int64" Name="offsets" format="ascii" RangeMin="1" RangeMax="81">
        </DataArray>
      </Lines>
      <Strips>
        <DataArray type="Int64" Name="connectivity" format="ascii" RangeMin="0" RangeMax="80">
        </DataArray>
        <DataArray type="Int64" Name="offsets" format="ascii" RangeMin="1" RangeMax="81">
        </DataArray>
      </Strips>
      <Polys>
        <DataArray type="Int64" Name="connectivity" format="ascii" RangeMin="0" RangeMax="80">
          0 1 11 10 1 2 12 11
          2 3 13 12 3 4 14 13
          4 5 15 14 5 6 16 15
          6 7 17 16 7 8 18 17
          8 9 19 18 10 11 21 20
          11 12 22 21 12 13 23 22
          13 14 24 23 14 15 25 24
          15 16 26 25 16 17 27 26
          17 18 28 27 18 19 29 28
          20 21 31 30 21 22 32 31
          22 23 33 32 23 24 34 33
          24 25 35 34 25 26 36 35
          26 27 37 36 27 28 38 37
          28 29 39 38 30 31 41 40
          31 32 42 41 32 33 43 42
          33 34 44 43 34 35 45 44
          35 36 46 45 36 37 47 46
          37 38 48 47 38 39 49 48
          40 41 51 50 41 42 52 51
          42 43 53 52 43 44 54 53
          44 45 55 54 45 46 56 55
          46 47 57 56 47 48 58 57
          48 49 59 58 50 51 61 60
          51 52 62 61 52 53 63 62
          53 54 64 63 54 55 65 64
          55 56 66 65 56 57 67 66
          57 58 68 67 58 59 69 68
          60 61 71 70 61 62 72 71
          62 63 73 72 63 64 74 73
          64 65 75 74 65 66 76 75
          66 67 77 76 67 68 78 77
          68 69 79 78 70 71 81 80
          71 72 82 81 72 73 83 82
          73 74 84 83 74 75 85 84
          75 76 86 85 76 77 87 86
          77 78 88 87 78 79 89 88
          80 81 91 90 81 82 92 91
          82 83 93 92 83 84 94 93
          84 85 95 94 85 86 96 95
          86 87 97 96 87 88 98 97
          88 89 99 98 
        </DataArray>
        <DataArray type="Int64" Name="offsets" format="ascii" RangeMin="1" RangeMax="81">
          4 8 12 16 20 24
          28 32 36 40 44 48
          52 56 60 64 68 72
          76 80 84 88 92 96
          100 104 108 112 116 120
          124 128 132 136 140 144
          148 152 156 160 164 168
          172 176 180 184 188 192
          196 200 204 208 212 216
          220 224 228 232 236 240
          244 248 252 256 260 264
          268 272 276 280 284 288
          292 296 300 304 308 312
          316 320 324 
        </DataArray>
      </Polys>
    </Piece>
  </PolyData>
</VTKFile>
