<VTKFile type="PolyData" version="1.0" byte_order="LittleEndian" header_type="UInt64">
  <PolyData>
    <Piece NumberOfPoints="10000" NumberOfVerts="0" NumberOfLines="0" NumberOfStrips="0" NumberOfPolys="9801">
      <PointData>
        <DataArray type="Float32" Name="zvalue" NumberOfComponents="1" format="ascii" RangeMin="0.5739293284714222" RangeMax="2.0152185410261154">
          0.8621006309986115 0.8636291548609734 0.8652580231428146 0.8670311942696571 0.8689078912138939 0.87085822224617
          0.8729355484247208 0.8752438724040985 0.8778516203165054 0.8808557987213135 0.8841850459575653 0.8879040777683258
          0.8921535462141037 0.8970711976289749 0.9025576114654541 0.9089526310563087 0.916088841855526 0.9248772487044334
          0.9373767748475075 0.9570644944906235 0.9911985695362091 1.010635793209076 1.0310995504260063 0.9495289847254753
          0.8271261379122734 0.7776525765657425 0.7882014289498329 0.8173832632601261 0.8602652959525585 0.8902160711586475
          0.8989627249538898 0.901731587946415 0.902478002011776 0.9024378694593906 0.902141384780407 0.9017898589372635
          0.9014270007610321 0.9010616019368172 0.9007267169654369 0.9004436582326889 0.9001609496772289 0.8998546376824379
          0.8994782231748104 0.8990190476179123 0.8984780870378017 0.8978475742042065 0.8971176072955132 0.8962591476738453
          0.8952985368669033 0.8942533396184444 0.8930775709450245 0.8918100893497467 0.8905235901474953 0.8892850615084171
          0.8880630433559418 0.8868760764598846 0.8856905438005924 0.8844986371695995 0.8833436146378517 0.8822034560143948
          0.8810471594333649 0.8799127824604511 0.8788030855357647 0.8777053505182266 0.8767066858708858 0.8757541552186012
          0.8748363181948662 0.8739327155053616 0.8730596154928207 0.8722278252243996 0.8714443743228912 0.8706941455602646
          0.8699615746736526 0.8692843317985535 0.8686175532639027 0.8679606691002846 0.8673186339437962 0.8666911870241165
          0.8660775944590569 0.8654604107141495 0.864849153906107 0.8642575480043888 0.8637068904936314 0.8631533645093441
          0.8626172170042992 0.8621007651090622 0.8616024404764175 0.8610963597893715 0.8605753779411316 0.8600466027855873
          0.8595258519053459 0.8589823916554451 0.8583921752870083 0.8577655144035816 0.8571026176214218 0.8564276918768883
          0.8557763434946537 0.8551481924951077 0.8545268103480339 0.8539187237620354 0.8653768450021744 0.8668044283986092
          0.8683078289031982 0.8699443489313126 0.8717712685465813 0.8738287091255188 0.8761284649372101 0.8786854073405266
          0.8815863505005836 0.8849758952856064 0.8887578696012497 0.8929099217057228 0.8975231498479843 0.902755931019783
          0.9088976979255676 0.9159705191850662 0.9247462376952171 0.937214769423008 0.9557442143559456 0.9861060976982117
          1.0130759477615356 1.0098156183958054 0.9454463422298431 0.8235971853137016 0.7885153293609619 0.7996117323637009
          0.8221276812255383 0.8425723500549793 0.8840696774423122 0.9016827568411827 0.906940434128046 0.9085635654628277
          0.9088864028453827 0.9086907505989075 0.908338151872158 0.9079480841755867 0.9075510092079639 0.9071554280817509
          0.9067931957542896 0.9064625762403011 0.9061235263943672 0.9057382494211197 0.9052683897316456 0.9047264643013477
          0.9041037075221539 0.903392281383276 0.9025457091629505 0.9015909433364868 0.9005474522709846 0.8994191586971283
          0.8981769531965256 0.8968331925570965 0.8954916335642338 0.8941775783896446 0.8928944766521454 0.8916302770376205
          0.8903630562126637 0.8891019970178604 0.8878811709582806 0.8866718783974648 0.8854366019368172 0.8842274136841297
          0.8830462284386158 0.8819125816226006 0.8808606415987015 0.8798470832407475 0.8788753189146519 0.8779158480465412
          0.8770041689276695 0.8761466778814793 0.8753298409283161 0.8745457045733929 0.8738372698426247 0.873127993196249
          0.8724289126694202 0.8717393018305302 0.8710614889860153 0.870397262275219 0.8697365969419479 0.8690895512700081
          0.8684398159384727 0.8678239360451698 0.8672235794365406 0.8666290640830994 0.8660376369953156 0.8654650300741196
          0.864911288022995 0.864366676658392 0.8638161793351173 0.8632721900939941 0.8627176322042942 0.8621304780244827
          0.8615095093846321 0.860852736979723 0.8601535521447659 0.8594537749886513 0.8587713651359081 0.8581104353070259
          0.8574609309434891 0.8568222746253014 0.8687820434570312 0.8701340183615685 0.871557205915451 0.8731717616319656
          0.8750693798065186 0.8773329332470894 0.8800206631422043 0.8830378204584122 0.8863379061222076 0.8900543600320816
          0.8941214233636856 0.8985718637704849 0.9036368057131767 0.9096457734704018 0.9169334769248962 0.926121436059475
          0.9381547197699547 0.954362042248249 0.9830469489097595 1.0106933787465096 0.9948907792568207 0.9386120140552521
          0.8290665969252586 0.7995067611336708 0.8136947005987167 0.8286364264786243 0.8404247090220451 0.8674477450549603
          0.9004621095955372 0.9113508127629757 0.9147102385759354 0.915686585009098 0.9157268777489662 0.9154310412704945
          0.9150216989219189 0.914576806128025 0.9141066744923592 0.9136406518518925 0.9132038690149784 0.9127911329269409
          0.9123678952455521 0.9118751622736454 0.9113024324178696 0.9106627814471722 0.9099399745464325 0.9091070219874382
          0.9081457108259201 0.9070919938385487 0.9059415794909 0.9047131687402725 0.9034240022301674 0.9020236283540726
          0.9006230011582375 0.8992367312312126 0.8978782072663307 0.896527748554945 0.8951818346977234 0.8938489370048046
          0.8925599902868271 0.8912685662508011 0.8899488709867001 0.8886706233024597 0.8874143660068512 0.8862335197627544
          0.8851210661232471 0.8840616978704929 0.8830202408134937 0.8820173591375351 0.8810772821307182 0.880182534456253
          0.879325844347477 0.8785620965063572 0.877820573747158 0.8770783953368664 0.8763459548354149 0.8756231069564819
          0.8749084435403347 0.8741953372955322 0.8734977506101131 0.8728175759315491 0.8721140697598457 0.8714465573430061
          0.8707864843308926 0.8701381757855415 0.8695068769156933 0.8688940741121769 0.868299700319767 0.86772196367383
          0.8671593852341175 0.866583626717329 0.8659689277410507 0.8653463535010815 0.8647000268101692 0.8640150502324104
          0.8632848151028156 0.8625540249049664 0.861837774515152 0.8611417450010777 0.8604596704244614 0.8597868531942368
          0.8723190426826477 0.8736131489276886 0.8750582411885262 0.876794159412384 0.8789501637220383 0.8816147074103355
          0.8847755119204521 0.8883462697267532 0.8920862451195717 0.8959860503673553 0.9004019573330879 0.905625008046627
          0.9119682759046555 0.9195395708084106 0.9283771887421608 0.9393848404288292 0.9551905989646912 0.9828819036483765
          1.0004907622933388 0.9760470241308212 0.8980104923248291 0.8490794524550438 0.8094874694943428 0.8206895366311073
          0.8364934623241425 0.8451533131301403 0.8575205765664577 0.890001192688942 0.9133164435625076 0.9204517006874084
          0.9226840324699879 0.9232312627136707 0.9230874851346016 0.9227036982774734 0.9222127348184586 0.9216550588607788
          0.9210776537656784 0.9205063842236996 0.9199623875319958 0.9194396995007992 0.9188993647694588 0.9182802997529507
          0.9175928570330143 0.9168307930231094 0.9159821346402168 0.9150087125599384 0.9139280319213867 0.912761963903904
          0.9115096107125282 0.9101837202906609 0.9088105596601963 0.9074076972901821 0.9059271290898323 0.9044667333364487
          0.9030204750597477 0.901580210775137 0.9001549445092678 0.898746982216835 0.897378109395504 0.8959932290017605
          0.8945958502590656 0.8932280465960503 0.8919099308550358 0.8906743265688419 0.8895082250237465 0.8883903659880161
          0.8872874230146408 0.8862527459859848 0.8852697648108006 0.8843317180871964 0.8834921419620514 0.8826894983649254
          0.8819117359817028 0.8811357021331787 0.8803690709173679 0.8796121254563332 0.8788371942937374 0.8780674077570438
          0.8773147538304329 0.8765788748860359 0.8758456036448479 0.8751342222094536 0.8744296468794346 0.8737396821379662
          0.873066995292902 0.87241180986166 0.871789000928402 0.8711869418621063 0.8705941215157509 0.8699485659599304
          0.8692973777651787 0.8686433732509613 0.8679681308567524 0.8672505803406239 0.8664921410381794 0.8657242581248283
          0.8649706766009331 0.864237979054451 0.863520011305809 0.8628106564283371 0.8761111721396446 0.8773558288812637
          0.8789137750864029 0.8809219151735306 0.8835487812757492 0.8867713809013367 0.8904252424836159 0.8942419663071632
          0.8982297629117966 0.9026405960321426 0.9082045331597328 0.9150644838809967 0.9226589649915695 0.9317653328180313
          0.9431874975562096 0.961329460144043 0.9766206294298172 0.9818551316857338 0.9578777179121971 0.8695925921201706
          0.8568743020296097 0.8272821009159088 0.8260135054588318 0.8471915423870087 0.8508793190121651 0.858006838709116
          0.8760772794485092 0.909015566110611 0.9246067330241203 0.9295487739145756 0.9310649335384369 0.9312992952764034
          0.9310123696923256 0.9304973036050797 0.9298794716596603 0.9291811101138592 0.9284616373479366 0.9277534894645214
          0.9270742870867252 0.9264119118452072 0.9257274605333805 0.9249712638556957 0.9241373762488365 0.9232310838997364
          0.922232061624527 0.9211088269948959 0.9199080020189285 0.9186332710087299 0.9172712452709675 0.9158432744443417
          0.9143886379897594 0.9129491299390793 0.9114239737391472 0.909870944917202 0.9083277247846127 0.9067985899746418
          0.9052895084023476 0.903797872364521 0.9023300781846046 0.9008576646447182 0.899358905851841 0.8979137241840363
          0.8965412974357605 0.8952462114393711 0.8940243124961853 0.8928310945630074 0.8916928097605705 0.8906101509928703
          0.8895788937807083 0.8886544331908226 0.8877734132111073 0.8869280107319355 0.8861082941293716 0.885277546942234
          0.8844558261334896 0.88363067060709 0.8828132636845112 0.8820055350661278 0.8812139667570591 0.8804379962384701
          0.8796735666692257 0.8789182268083096 0.8781682625412941 0.8774351328611374 0.8767250552773476 0.876050028949976
          0.8753995262086391 0.8747491799294949 0.8740782402455807 0.873392391949892 0.8727053441107273 0.8720166124403477
          0.8713108152151108 0.8705624267458916 0.8697696328163147 0.8689641170203686 0.8681702725589275 0.8673988431692123
          0.8666420616209507 0.8658934272825718 0.880252406001091 0.8815330639481544 0.8833044245839119 0.8857796788215637
          0.8889177665114403 0.8924859315156937 0.8962276503443718 0.9003850892186165 0.9052428305149078 0.9113117605447769
          0.9181768670678139 0.9259410947561264 0.9356521815061569 0.947683110833168 0.9548683017492294 0.956145279109478
          0.9606131613254547 0.9300132468342781 0.8410809934139252 0.8347751498222351 0.8238549903035164 0.8368862718343735
          0.8566636443138123 0.8580393344163895 0.8620338477194309 0.8721678406000137 0.8970441520214081 0.9247817695140839
          0.9353733994066715 0.9389282949268818 0.9399386458098888 0.9399193488061428 0.9394792281091213 0.9388126395642757
          0.9380197636783123 0.9371473975479603 0.9362557828426361 0.9353829510509968 0.9345408417284489 0.9337129630148411
          0.9328620694577694 0.931937862187624 0.9309394434094429 0.9298748224973679 0.9286927878856659 0.9274374134838581
          0.9261157065629959 0.9247129857540131 0.9232430569827557 0.921707384288311 0.9201841242611408 0.9186655059456825
          0.9171067290008068 0.9154557138681412 0.9138121232390404 0.9121906273066998 0.9105894565582275 0.9089932776987553
          0.9074257239699364 0.9058357030153275 0.9042643085122108 0.9027511700987816 0.9013096764683723 0.8999532088637352
          0.8986654095351696 0.8974136300384998 0.8962232507765293 0.8950877748429775 0.8940658904612064 0.8930866196751595
          0.8921384140849113 0.8912265077233315 0.8903481625020504 0.8894784674048424 0.888606607913971 0.8877438567578793
          0.886890821158886 0.8860464990139008 0.8852138034999371 0.8843926563858986 0.8835997357964516 0.8827987872064114
          0.8820065893232822 0.8812572583556175 0.8805272951722145 0.8798007182776928 0.8790872879326344 0.8783707022666931
          0.8776421919465065 0.8769172765314579 0.8761923238635063 0.8754671439528465 0.874731995165348 0.8739468902349472
          0.8731181025505066 0.8722735829651356 0.8714379221200943 0.8706239871680737 0.8698149919509888 0.8690207377076149
          0.8847711235284805 0.886255070567131 0.8883655071258545 0.8912254497408867 0.8946629911661148 0.8982802554965019
          0.9024256616830826 0.9074236452579498 0.9134906008839607 0.9201848432421684 0.9285196214914322 0.9390109032392502
          0.9467155560851097 0.9469878599047661 0.9480690658092499 0.9212120249867439 0.8788309618830681 0.8213716968894005
          0.8087680824100971 0.828637145459652 0.8302339091897011 0.8544131368398666 0.8708547279238701 0.8682954460382462
          0.8730201721191406 0.8873276710510254 0.9178383238613605 0.9386428371071815 0.9461072646081448 0.9486984647810459
          0.9493235275149345 0.9491098895668983 0.9484821557998657 0.9476247988641262 0.9466303549706936 0.9455597028136253
          0.944467555731535 0.9433974586427212 0.9423612989485264 0.9413427114486694 0.9402931034564972 0.9391819387674332
          0.9380021691322327 0.9367463476955891 0.9354091100394726 0.9340183846652508 0.9325533881783485 0.9310250915586948
          0.9294345341622829 0.927808616310358 0.9261960759758949 0.9245875887572765 0.9229591600596905 0.9212311655282974
          0.919483844190836 0.9177608639001846 0.9160422086715698 0.9143362455070019 0.9126451499760151 0.9109638668596745
          0.9093276374042034 0.9077355451881886 0.9062173068523407 0.9048016294836998 0.9034363813698292 0.9021202623844147
          0.9008563607931137 0.8997074514627457 0.8986158184707165 0.8975734002888203 0.8965753354132175 0.8956171348690987
          0.8946944028139114 0.893772441893816 0.8928587138652802 0.8919591009616852 0.8910694755613804 0.8901879079639912
          0.8893085047602654 0.8884587660431862 0.8876383006572723 0.8868129402399063 0.8860021345317364 0.8851989880204201
          0.8844049088656902 0.8836274333298206 0.8828555010259151 0.8820667676627636 0.8812920451164246 0.8805246688425541
          0.8797596283257008 0.8790011778473854 0.878224354237318 0.8774042315781116 0.8765380568802357 0.8756529055535793
          0.8747615367174149 0.8738962709903717 0.8730542212724686 0.8722181580960751 0.8896850198507309 0.8914499208331108
          0.8939373344182968 0.8971073105931282 0.9005063325166702 0.9042842164635658 0.9089918360114098 0.9148581549525261
          0.9213897958397865 0.9299488365650177 0.9411269575357437 0.9490701630711555 0.9411197975277901 0.9166124239563942
          0.8747660741209984 0.8398753330111504 0.8067255765199661 0.7938882037997246 0.8317175731062889 0.8239219859242439
          0.8413881063461304 0.8667433187365532 0.875555619597435 0.8786230757832527 0.8854235708713531 0.9073639921844006
          0.9370520003139973 0.9514761604368687 0.9569715037941933 0.9589301943778992 0.9592647813260555 0.9588501714169979
          0.9580077715218067 0.9569291546940804 0.9557073302567005 0.9544048830866814 0.9530846476554871 0.9517951533198357
          0.9505356401205063 0.9492917060852051 0.9480173736810684 0.9466980546712875 0.9453359544277191 0.9438943453133106
          0.9424063414335251 0.9408573731780052 0.9392490610480309 0.9375827945768833 0.9358679577708244 0.9341568239033222
          0.9324455410242081 0.9307234659790993 0.9289892911911011 0.9272014908492565 0.9253479465842247 0.9234921410679817
          0.9216425865888596 0.9198232740163803 0.9180231280624866 0.9162711203098297 0.9145340584218502 0.9128539897501469
          0.9112482890486717 0.9097514003515244 0.9082848243415356 0.9068878442049026 0.905620850622654 0.9044196866452694
          0.9032719805836678 0.9021755196154118 0.9011264070868492 0.9001196138560772 0.8991388902068138 0.8981692306697369
          0.8972145058214664 0.8962763845920563 0.8953531235456467 0.8944434262812138 0.8935228139162064 0.8926576226949692
          0.8918192274868488 0.8909517154097557 0.8900743052363396 0.8892145901918411 0.8883725516498089 0.8875445127487183
          0.8866901583969593 0.8858520835638046 0.8850289732217789 0.8842159099876881 0.8834140971302986 0.8826140947639942
          0.8817922659218311 0.8809338584542274 0.8800164498388767 0.8790835998952389 0.8781567476689816 0.8772466517984867
          0.8763577006757259 0.875470545142889 0.8949979841709137 0.8970639407634735 0.8999711349606514 0.9032100513577461
          0.9065202176570892 0.9106218367815018 0.915858194231987 0.9220188930630684 0.9299247041344643 0.9409505799412727
          0.9519210830330849 0.942097432911396 0.9015355929732323 0.8673159405589104 0.8215532079339027 0.7861855402588844
          0.7878226563334465 0.8225036114454269 0.8191516138613224 0.8330067023634911 0.8467463701963425 0.860984556376934
          0.8752948865294456 0.8897290974855423 0.9012984000146389 0.9297621063888073 0.9532477334141731 0.9636868275702
          0.9680413641035557 0.9695899151265621 0.9697257950901985 0.9691146425902843 0.9680482111871243 0.9667177759110928
          0.9652397222816944 0.9636800549924374 0.9620991349220276 0.9605523236095905 0.9590476825833321 0.9575548060238361
          0.956028375774622 0.9545104168355465 0.9529498368501663 0.9513388834893703 0.9496824070811272 0.9479715153574944
          0.9462120085954666 0.9444006346166134 0.9425773769617081 0.9407651014626026 0.9389338605105877 0.9370802491903305
          0.9352153167128563 0.9333347603678703 0.9313529431819916 0.9293441697955132 0.9273725785315037 0.9254378639161587
          0.9235388077795506 0.9216800555586815 0.9198342114686966 0.918057631701231 0.9163880608975887 0.914786159992218
          0.9132455661892891 0.9118429310619831 0.9105167239904404 0.9092544317245483 0.9080489352345467 0.9068964309990406
          0.9057939797639847 0.904725931584835 0.9036887958645821 0.9026777371764183 0.9016905762255192 0.9007231593132019
          0.8997674994170666 0.898804560303688 0.8978789448738098 0.8969874754548073 0.8960867114365101 0.8951602056622505
          0.8942339196801186 0.8933249264955521 0.8924335911870003 0.8915186636149883 0.8906145989894867 0.8897265121340752
          0.8888532854616642 0.8879975043237209 0.887150801718235 0.8863045498728752 0.8854218237102032 0.8845158033072948
          0.8835712000727654 0.8825994618237019 0.8816234990954399 0.8806591928005219 0.8797151893377304 0.8787766844034195
          0.9007522463798523 0.9032031670212746 0.9063840284943581 0.9095089510083199 0.9128608554601669 0.9173421785235405
          0.92245202511549 0.9294418618083 0.9392115548253059 0.9509434327483177 0.9561348557472229 0.9181100949645042
          0.8720610961318016 0.8283640071749687 0.7790967226028442 0.7740443199872971 0.8140956684947014 0.8385282047092915
          0.822515457868576 0.8376107215881348 0.8417252264916897 0.8507015556097031 0.87103321403265 0.8983055800199509
          0.9228737875819206 0.9501174539327621 0.9670197144150734 0.9754083529114723 0.9792608730494976 0.9806182347238064
          0.9806380122900009 0.9798436835408211 0.9785547815263271 0.9769640639424324 0.9752158708870411 0.9733755514025688
          0.9715053550899029 0.9696724340319633 0.967878345400095 0.9661082699894905 0.9643502943217754 0.9626166895031929
          0.9608572646975517 0.9590683318674564 0.9572430811822414 0.9553706161677837 0.953448724001646 0.9514878019690514
          0.9495403505861759 0.9475845508277416 0.9455980472266674 0.9435986988246441 0.9415952488780022 0.939560990780592
          0.9374623671174049 0.9353352189064026 0.9332447461783886 0.9311994761228561 0.9292041547596455 0.9272197969257832
          0.9252790473401546 0.9234226122498512 0.9216618575155735 0.9199594594538212 0.9184060171246529 0.9169381521642208
          0.9155421257019043 0.914214201271534 0.912949163466692 0.9117389135062695 0.9105769470334053 0.9094568826258183
          0.9083794988691807 0.9073258228600025 0.9062926657497883 0.9052810817956924 0.9042814299464226 0.9032959565520287
          0.9023396484553814 0.9013845026493073 0.9004354178905487 0.8994643017649651 0.89848842471838 0.8975289277732372
          0.8965540044009686 0.8955823071300983 0.8946276195347309 0.8936886824667454 0.892768632620573 0.8918625228106976
          0.8909543268382549 0.8900448270142078 0.8891296610236168 0.8881900273263454 0.8872020430862904 0.8861796706914902
          0.8851465433835983 0.8841268569231033 0.8831267952919006 0.8821310065686703 0.9069464802742004 0.9097367823123932
          0.9129796847701073 0.9159561097621918 0.9194527789950371 0.9239355325698853 0.9291887208819389 0.9374086186289787
          0.9482782334089279 0.9587026536464691 0.948738656938076 0.9027116596698761 0.8452031686902046 0.7927144020795822
          0.7698219418525696 0.792273037135601 0.8412282690405846 0.8389879465103149 0.8378682509064674 0.8426230326294899
          0.8226894587278366 0.8361386656761169 0.8607455417513847 0.9056936576962471 0.9450605660676956 0.9655214175581932
          0.978803388774395 0.98655816167593 0.9904521517455578 0.9919100403785706 0.9919074475765228 0.9909859895706177
          0.9894904345273972 0.9876429922878742 0.9856033660471439 0.983463853597641 0.9812855869531631 0.9791427813470364
          0.9770483300089836 0.9750040099024773 0.9729967899620533 0.9710234589874744 0.9690644703805447 0.9670853465795517
          0.9650776498019695 0.9630122631788254 0.9608968906104565 0.9587927758693695 0.9567148014903069 0.9546122662723064
          0.9524773024022579 0.950323399156332 0.9481322579085827 0.94594307243824 0.9437453038990498 0.9415199719369411
          0.9393097460269928 0.9371585920453072 0.9350377507507801 0.9329259432852268 0.9308962859213352 0.9289464019238949
          0.9270663745701313 0.925340823829174 0.9237147718667984 0.9221691600978374 0.9207014665007591 0.9193125516176224
          0.9179929755628109 0.916727352887392 0.9155019447207451 0.9143266528844833 0.9131946712732315 0.912086121737957
          0.9110027700662613 0.9099584110081196 0.9089143835008144 0.9078753553330898 0.9068752825260162 0.9058755189180374
          0.90487926825881 0.9038622155785561 0.9028362557291985 0.9018000736832619 0.9007580280303955 0.899734191596508
          0.89872782304883 0.8977373987436295 0.8967556431889534 0.8957868367433548 0.8948380723595619 0.8938844799995422
          0.892918910831213 0.8919325731694698 0.8908944651484489 0.8898206949234009 0.8887293338775635 0.8876484930515289
          0.886587593704462 0.8855326995253563 0.9134733229875565 0.9164487719535828 0.9194787293672562 0.9223355948925018
          0.9260423630475998 0.9303490519523621 0.9361617490649223 0.9453244432806969 0.9562870264053345 0.9614929631352425
          0.9411017969250679 0.8916189298033714 0.8227836713194847 0.7770668119192123 0.7810119912028313 0.8158737793564796
          0.8528261110186577 0.8481586799025536 0.8540321215987206 0.8414716422557831 0.8086653649806976 0.81773691624403
          0.8494360148906708 0.9050625935196877 0.9552213698625565 0.9760953821241856 0.9885778240859509 0.9968590252101421
          1.0014007911086082 1.0032993629574776 1.0034449994564056 1.0024747475981712 1.0008011385798454 0.9987071864306927
          0.9963763058185577 0.9939158670604229 0.9914215616881847 0.9889740943908691 0.9865794889628887 0.9842535220086575
          0.9819728806614876 0.9797342345118523 0.9775219149887562 0.9753148593008518 0.9731033854186535 0.9708652384579182
          0.9686073921620846 0.9663893096148968 0.9641568399965763 0.9618937708437443 0.9595897644758224 0.957230418920517
          0.9548727869987488 0.9525436870753765 0.9502318017184734 0.947905145585537 0.9455978237092495 0.9433068558573723
          0.9410390406847 0.9388173222541809 0.9366837367415428 0.9346103705465794 0.9326921217143536 0.9308898895978928
          0.9291834309697151 0.9275646954774857 0.926029022783041 0.9245713576674461 0.9231805615127087 0.921839352697134
          0.9205533415079117 0.9193173982203007 0.9181267283856869 0.9169680885970592 0.9158522486686707 0.9147262871265411
          0.9136170595884323 0.9125505574047565 0.9115054570138454 0.9104598984122276 0.9094177931547165 0.9083520248532295
          0.9072584547102451 0.9061456732451916 0.9050499834120274 0.9039711318910122 0.9028972238302231 0.9018472321331501
          0.9008169546723366 0.8998081795871258 0.8988085016608238 0.8977971635758877 0.8967819064855576 0.895741268992424
          0.8946476057171822 0.8935164995491505 0.8923687376081944 0.8912279903888702 0.8900739550590515 0.8888904973864555
          0.9201849326491356 0.9230882674455643 0.9258881509304047 0.9287149757146835 0.9324924722313881 0.9367826357483864
          0.9429538324475288 0.9521925374865532 0.9630566984415054 0.9633290097117424 0.9369445666670799 0.8830347433686256
          0.8153127580881119 0.7811041921377182 0.7904614359140396 0.8329398110508919 0.8588406518101692 0.8582734391093254
          0.8707800209522247 0.8400617092847824 0.8025718480348587 0.8098307102918625 0.841543797403574 0.8922933861613274
          0.9474157318472862 0.9801178500056267 0.9951427988708019 1.0058165788650513 1.0118324793875217 1.0146064683794975
          1.0151177309453487 1.0142149850726128 1.0124315544962883 1.0101179033517838 1.0074898526072502 1.0047271698713303
          1.0019180178642273 0.9991362057626247 0.9964327290654182 0.993789654225111 0.9911975748836994 0.9886797070503235
          0.986238457262516 0.9838265627622604 0.9814252406358719 0.9790278859436512 0.9766606390476227 0.9742975160479546
          0.9718925468623638 0.9694402553141117 0.9669174812734127 0.9643807262182236 0.961865745484829 0.9593846388161182
          0.9569376930594444 0.954517487436533 0.9521056301891804 0.9496623426675797 0.947247102856636 0.9449153281748295
          0.9426633156836033 0.9405238889157772 0.9385197348892689 0.9366182312369347 0.9348205476999283 0.9331173300743103
          0.9315027184784412 0.9299673475325108 0.9284895360469818 0.9270802363753319 0.925730612128973 0.9244303964078426
          0.9231991097331047 0.9219799116253853 0.9207659661769867 0.9195809885859489 0.9184221103787422 0.9173216670751572
          0.9162286557257175 0.9151362329721451 0.9140474982559681 0.9129223525524139 0.9117421992123127 0.9105735160410404
          0.9094067104160786 0.9082580655813217 0.9071345701813698 0.9060461297631264 0.9049727395176888 0.903911717236042
          0.9028526246547699 0.9017837792634964 0.900706522166729 0.8996083773672581 0.8984632194042206 0.8972724601626396
          0.8960545659065247 0.894805233925581 0.893549021333456 0.892309233546257 0.9268151447176933 0.9295488893985748
          0.9323215559124947 0.9350873678922653 0.9387829229235649 0.9433602467179298 0.9492871314287186 0.958854004740715
          0.9700446352362633 0.9675686657428741 0.9343948289752007 0.8815906196832657 0.8206848204135895 0.7901985719799995
          0.8033347949385643 0.8393801227211952 0.8601172342896461 0.8674145266413689 0.8759139329195023 0.8517894670367241
          0.8115341141819954 0.8139685802161694 0.84156284481287 0.8810521587729454 0.9302983656525612 0.9724419116973877
          0.9953722059726715 1.0119922645390034 1.021338313817978 1.0256062597036362 1.0268333218991756 1.0261545479297638
          1.0243348963558674 1.021818071603775 1.018919449299574 1.0158496908843517 1.0126910135149956 1.0095558241009712
          1.0065334290266037 1.003581840544939 1.0007029511034489 0.9979512430727482 0.9952989518642426 0.9926887676119804
          0.9900947213172913 0.9875489287078381 0.985043715685606 0.9825059287250042 0.9798990115523338 0.9772178865969181
          0.9745092019438744 0.9717984944581985 0.9691171832382679 0.9664751663804054 0.9638944789767265 0.9613653421401978
          0.9588231891393661 0.9562280289828777 0.9536720439791679 0.9512040987610817 0.9488676376640797 0.9466271437704563
          0.9445117451250553 0.9425048790872097 0.9406110607087612 0.9388191029429436 0.9371202141046524 0.9354883953928947
          0.9339348636567593 0.9324527159333229 0.931039746850729 0.9296962022781372 0.92837905138731 0.9270659610629082
          0.9257848002016544 0.9245383888483047 0.9233411699533463 0.9221854545176029 0.921039517968893 0.9198966585099697
          0.9187568537890911 0.9175372645258904 0.9162880852818489 0.9150513000786304 0.9138291776180267 0.9126369282603264
          0.9114771485328674 0.9103353545069695 0.9092092737555504 0.9080915674567223 0.9069608934223652 0.905832652002573
          0.9047002457082272 0.9035361297428608 0.9023234434425831 0.901068489998579 0.8997434936463833 0.898409403860569
          0.8970913551747799 0.8957887925207615 0.9334187433123589 0.9359367340803146 0.938634105026722 0.9413753375411034
          0.945111833512783 0.9501440525054932 0.9563394114375114 0.9664038419723511 0.9778728038072586 0.9740987792611122
          0.9345943480730057 0.8833377622067928 0.8339148461818695 0.8080004453659058 0.815318338572979 0.8388982564210892
          0.8516802527010441 0.8564164116978645 0.869738444685936 0.8673569336533546 0.840944267809391 0.8314366862177849
          0.8460476770997047 0.8799974843859673 0.922271803021431 0.9604212790727615 0.9853459149599075 1.0128782950341702
          1.0289075002074242 1.0360343642532825 1.0384224243462086 1.0381911024451256 1.036389984190464 1.0337213911116123
          1.030588872730732 1.0272114127874374 1.0237431190907955 1.0202985182404518 1.0169628486037254 1.0137038454413414