<VTKFile type="PolyData" version="1.0" byte_order="LittleEndian" header_type="UInt64">
  <PolyData>
    <Piece NumberOfPoints="10000" NumberOfVerts="0" NumberOfLines="0" NumberOfStrips="0" NumberOfPolys="9801">
      <PointData>
        <DataArray type="Float32" Name="zvalue" NumberOfComponents="1" format="ascii" RangeMin="0.5577514953911304" RangeMax="1.1359464153647423">
          0.6570407226681709 0.6570789664983749 0.6574128307402134 0.6567023023962975 0.655475277453661 0.6541239060461521
          0.6528203748166561 0.6512264050543308 0.6495235562324524 0.6479931399226189 0.6463591083884239 0.6449482999742031
          0.6440262943506241 0.6433439254760742 0.6420830637216568 0.6405211612582207 0.6388324052095413 0.6371531076729298
          0.6356791481375694 0.634277205914259 0.6328172236680984 0.6313245818018913 0.6296625584363937 0.6278601735830307
          0.6260643154382706 0.6243675276637077 0.6229111962020397 0.621588971465826 0.6203426569700241 0.6191543228924274
          0.6179858781397343 0.6168833896517754 0.6158238612115383 0.6147855669260025 0.6137566864490509 0.6127752847969532
          0.6118385344743729 0.6109959669411182 0.6102511808276176 0.609627727419138 0.6090974844992161 0.60863196849823
          0.6082102656364441 0.6078234501183033 0.6075195111334324 0.6072783656418324 0.6067179478704929 0.6060829758644104
          0.6027518548071384 0.5985268652439117 0.5969823710620403 0.5962096862494946 0.5992500558495522 0.603373322635889
          0.6099595278501511 0.6174037158489227 0.6252109967172146 0.6334352046251297 0.6378669776022434 0.6313655786216259
          0.6335037350654602 0.6471147388219833 0.659448366612196 0.6577253825962543 0.6586332395672798 0.659502886235714
          0.6619083173573017 0.6652553752064705 0.6706087663769722 0.6744392700493336 0.6767448782920837 0.6795636378228664
          0.6802959442138672 0.678652461618185 0.6790386736392975 0.6854198835790157 0.6904455982148647 0.6989005729556084
          0.7063043229281902 0.7104608826339245 0.7125599160790443 0.714599009603262 0.7091264873743057 0.7109060473740101
          0.7252022810280323 0.7388503178954124 0.7435739263892174 0.7515622787177563 0.7552395761013031 0.7542543821036816
          0.7528978511691093 0.7543314658105373 0.7591960690915585 0.7643919810652733 0.7682806104421616 0.7724667303264141
          0.7763538174331188 0.78103107213974 0.7861388958990574 0.7914991267025471 0.6561488509178162 0.6560382507741451
          0.6566045023500919 0.6559810489416122 0.6547509022057056 0.6533681005239487 0.6521472930908203 0.650532066822052
          0.6487811654806137 0.6472308933734894 0.645659014582634 0.644357692450285 0.6436374969780445 0.6431615054607391
          0.6418990455567837 0.6401044353842735 0.6383955739438534 0.6369581781327724 0.6355361491441727 0.6339602097868919
          0.6324047558009624 0.6309199593961239 0.6294526942074299 0.6278876662254333 0.6261773928999901 0.6244817152619362
          0.622937548905611 0.6215548664331436 0.6202527433633804 0.6190167963504791 0.6178305223584175 0.6166941672563553
          0.6156103685498238 0.6145782172679901 0.6136076524853706 0.6126580163836479 0.6117400974035263 0.6109143793582916
          0.610183984041214 0.6095436997711658 0.6090326718986034 0.608633279800415 0.6082892715930939 0.6080083474516869
          0.6077799573540688 0.6076703891158104 0.607241801917553 0.6062692776322365 0.602982621639967 0.5981944017112255
          0.5966920368373394 0.5958382338285446 0.5989979468286037 0.6036922335624695 0.6111102625727654 0.6184335015714169
          0.6257359236478806 0.6346722766757011 0.637200765311718 0.6304292604327202 0.6368067674338818 0.653948575258255
          0.6621593162417412 0.6594179458916187 0.6598627045750618 0.6614423021674156 0.6635606549680233 0.6682089567184448
          0.6735202111303806 0.6769830547273159 0.6794275604188442 0.6814025864005089 0.6802200525999069 0.679957814514637
          0.6840762831270695 0.6896455474197865 0.6960746347904205 0.7041560858488083 0.7100037559866905 0.7118061631917953
          0.7157187387347221 0.7125309705734253 0.7105017602443695 0.7236596196889877 0.7396330423653126 0.7415547333657742
          0.7510468028485775 0.7547115236520767 0.7535735853016376 0.7520839273929596 0.7533655241131783 0.7582620717585087
          0.7636797428131104 0.7666670121252537 0.7708417363464832 0.7747386507689953 0.7793972864747047 0.7844995595514774
          0.7899146042764187 0.7953183650970459 0.6552016399800777 0.6550011299550533 0.6555639654397964 0.6551802083849907
          0.6539665833115578 0.6525791697204113 0.6514675505459309 0.6498787105083466 0.648098561912775 0.6465351693332195
          0.6450418271124363 0.6439000628888607 0.6434648148715496 0.6430857628583908 0.6415486969053745 0.6395954079926014
          0.6380641497671604 0.6366529390215874 0.6351353637874126 0.6336226873099804 0.6321546696126461 0.6307277008891106
          0.6293387748301029 0.6279277391731739 0.6263477355241776 0.6247345060110092 0.623082097619772 0.6215993613004684
          0.6202369146049023 0.6189457848668098 0.6177215352654457 0.6165477186441422 0.6154180504381657 0.6143543012440205
          0.6133687980473042 0.612500749528408 0.6116902977228165 0.6108687222003937 0.610149510204792 0.6095203682780266
          0.6090143956243992 0.6086539663374424 0.6083903014659882 0.608197245746851 0.6080836243927479 0.6081166230142117
          0.6078492738306522 0.6065553426742554 0.6036586724221706 0.5982456989586353 0.5966027677059174 0.5956340581178665
          0.5989432819187641 0.6045766361057758 0.6120458170771599 0.6195969395339489 0.6261460520327091 0.6359755955636501
          0.6359013244509697 0.63124680519104 0.6419983170926571 0.6602828241884708 0.6632988229393959 0.6608198136091232
          0.6614778265357018 0.6629860401153564 0.665860403329134 0.6714139059185982 0.6762329563498497 0.6792577467858791
          0.6821668930351734 0.6821973696351051 0.6803693473339081 0.6819837428629398 0.6887313611805439 0.6935121901333332
          0.7015310414135456 0.7086284384131432 0.7105582132935524 0.7139702439308167 0.7172579914331436 0.7112362831830978
          0.7226707451045513 0.7403726913034916 0.7396925948560238 0.7501634992659092 0.7536738626658916 0.7525352127850056
          0.7510675638914108 0.7523167803883553 0.7572968825697899 0.7631835676729679 0.7650594934821129 0.7692907899618149
          0.7733343876898289 0.7779793702065945 0.783109076321125 0.7886058986186981 0.7940653599798679 0.7995128221809864
          0.6544833332300186 0.6543209180235863 0.6546235755085945 0.6544505506753922 0.6532481648027897 0.6517796777188778
          0.6506312750279903 0.6489881947636604 0.6471655741333961 0.6456204876303673 0.644305594265461 0.6434258446097374
          0.6432231701910496 0.6427501887083054 0.641176238656044 0.6392743997275829 0.637637060135603 0.6360378004610538
          0.634690135717392 0.633423026651144 0.6320908926427364 0.6307295113801956 0.6293643079698086 0.6280052550137043
          0.626563236117363 0.6249898597598076 0.6233176216483116 0.6217077784240246 0.6202700175344944 0.6189414858818054
          0.6176598593592644 0.6164536476135254 0.6153075620532036 0.6142144165933132 0.6131899319589138 0.6122874170541763
          0.6115265861153603 0.6108478605747223 0.6101446896791458 0.6095257699489594 0.6090372838079929 0.6087025217711926
          0.6085070557892323 0.6083980835974216 0.6083898171782494 0.6085677444934845 0.6084973588585854 0.6069443374872208
          0.6047226935625076 0.5987651944160461 0.5966972447931767 0.5955760553479195 0.5991579480469227 0.6056648343801498
          0.6128375008702278 0.6208206750452518 0.6271967701613903 0.6371848955750465 0.6346213296055794 0.6334806494414806
          0.6487899124622345 0.6659828349947929 0.6629858128726482 0.6616639718413353 0.6630419380962849 0.6644500456750393
          0.6689984537661076 0.6744573265314102 0.6786374449729919 0.6814536042511463 0.683585874736309 0.68226657807827
          0.6805985160171986 0.6871532760560513 0.6926999241113663 0.6987575702369213 0.707018107175827 0.7109523639082909
          0.7126897685229778 0.7172421403229237 0.7142740190029144 0.7224953286349773 0.7409485131502151 0.7387339696288109
          0.7489160262048244 0.7524599358439445 0.7513691261410713 0.7499361112713814 0.7510796338319778 0.7561389356851578
          0.76267034932971 0.7635552063584328 0.7678100578486919 0.7719984650611877 0.7767259553074837 0.7818482853472233
          0.787399385124445 0.7929637804627419 0.7984713986515999 0.8038081079721451 0.6538155265152454 0.653945829719305
          0.653967846184969 0.6539381444454193 0.6529689393937588 0.6515270657837391 0.6502698585391045 0.6485185325145721
          0.6465653739869595 0.6449658945202827 0.6437236592173576 0.6429218649864197 0.6425704695284367 0.6420076638460159
          0.6404678486287594 0.6384869962930679 0.6366106607019901 0.6352485567331314 0.6342090852558613 0.6331401839852333
          0.6319623067975044 0.6307141184806824 0.6294014863669872 0.6280686035752296 0.6267133466899395 0.6251786909997463
          0.6235400959849358 0.621875811368227 0.6203309372067451 0.6189471147954464 0.6176589876413345 0.616425734013319
          0.6152617856860161 0.6141508035361767 0.6130846478044987 0.6121281832456589 0.6113202422857285 0.6106633245944977
          0.6101493388414383 0.6095741130411625 0.6090904138982296 0.6087879277765751 0.6086341589689255 0.6086096875369549
          0.6087227836251259 0.6090347319841385 0.6091171763837337 0.6073712930083275 0.6052289977669716 0.5998562537133694
          0.5969548672437668 0.5956948474049568 0.5997347831726074 0.6065522283315659 0.6136721819639206 0.6216406859457493
          0.6287698298692703 0.6380748301744461 0.6338011063635349 0.6370033510029316 0.6554100438952446 0.6700755655765533
          0.6632761880755424 0.6627048812806606 0.664135679602623 0.6667808815836906 0.6723608635365963 0.677269235253334
          0.6807250156998634 0.6836006008088589 0.6844714060425758 0.6814148388803005 0.6845659837126732 0.6919042505323887
          0.696423526853323 0.7047264911234379 0.7108496837317944 0.7119091041386127 0.7166961990296841 0.7157901749014854
          0.7216254360973835 0.7411455288529396 0.7401354908943176 0.747506607323885 0.7511943317949772 0.7502412907779217
          0.7488243356347084 0.7497683353722095 0.7548291422426701 0.7619525007903576 0.7620694264769554 0.7663554139435291
          0.7707019187510014 0.7755078487098217 0.7806949988007545 0.7862767688930035 0.7918953113257885 0.7974507324397564
          0.802882481366396 0.8081884048879147 0.6525607854127884 0.6529098153114319 0.6523219645023346 0.6525005362927914
          0.6519123427569866 0.6510485075414181 0.6500892043113708 0.6484694704413414 0.6464824602007866 0.6448175050318241
          0.643601655960083 0.6427086032927036 0.6421364843845367 0.6414851024746895 0.6397607252001762 0.6374274492263794
          0.6356439925730228 0.634496882557869 0.6335128471255302 0.6325316652655602 0.6314975693821907 0.6303979754447937
          0.6292212679982185 0.6280024610459805 0.626758798956871 0.6253331191837788 0.6237259246408939 0.6220692060887814
          0.6204383745789528 0.618980310857296 0.6176850907504559 0.6164504885673523 0.6152661144733429 0.6141473986208439
          0.613067764788866 0.6120506972074509 0.6111760474741459 0.6104679517447948 0.609969187527895 0.6096317805349827
          0.609170213341713 0.6088802851736546 0.6087824665009975 0.6088411547243595 0.6090693287551403 0.6095132753252983
          0.6097184792160988 0.6077960468828678 0.6055678948760033 0.6011449359357357 0.5972836837172508 0.5960044749081135
          0.6004586815834045 0.6072621047496796 0.6147473864257336 0.6220384351909161 0.6308286413550377 0.6386079378426075
          0.6341253370046616 0.6418905258178711 0.660479374229908 0.6717192493379116 0.6637952141463757 0.6637890227138996
          0.6655660979449749 0.6701692454516888 0.6755915507674217 0.679769903421402 0.6827490068972111 0.6849001944065094
          0.6848230473697186 0.6823777891695499 0.6906434372067451 0.6956681273877621 0.7018074989318848 0.7094631604850292
          0.7117820158600807 0.7159210219979286 0.7175683006644249 0.722070224583149 0.7399183362722397 0.7440591678023338
          0.7462102882564068 0.7500491701066494 0.749216116964817 0.7476721815764904 0.7484523393213749 0.7534268572926521
          0.7610090747475624 0.7607093341648579 0.7649099789559841 0.7693906687200069 0.7742247059941292 0.7795669287443161
          0.785186093300581 0.7907680496573448 0.7963521406054497 0.8018627762794495 0.8072188310325146 0.8124252930283546
          0.6512698978185654 0.6520556770265102 0.6509470716118813 0.6509775035083294 0.6504001170396805 0.6495579443871975
          0.6487211547791958 0.6475437432527542 0.6459432207047939 0.6445874385535717 0.6435610055923462 0.6426652669906616
          0.6419925391674042 0.641061007976532 0.6390358507633209 0.6366465240716934 0.6351787485182285 0.6340406313538551
          0.6330226063728333 0.632040947675705 0.6310491263866425 0.6300425827503204 0.6289724372327328 0.6278587877750397
          0.6267350688576698 0.6254565380513668 0.623929351568222 0.6223232746124268 0.6206406280398369 0.619085967540741
          0.6177277490496635 0.6164870858192444 0.615294311195612 0.6141707673668861 0.6131108775734901 0.6120793260633945
          0.6111338958144188 0.6103599146008492 0.6097795628011227 0.6094831451773643 0.6093105785548687 0.6089928671717644
          0.6089285127818584 0.6090780012309551 0.6094302870333195 0.6100296713411808 0.610306691378355 0.6082236841320992
          0.6061226166784763 0.6023863814771175 0.5976234897971153 0.5965160802006721 0.6009259261190891 0.6079487130045891
          0.6160474605858326 0.6232079975306988 0.6333019286394119 0.6390850320458412 0.6356132477521896 0.6480337232351303
          0.6650028191506863 0.6711649335920811 0.6640715524554253 0.664996974170208 0.668106809258461 0.6738548837602139
          0.6785616762936115 0.6819227859377861 0.6843018271028996 0.6870497241616249 0.682788759469986 0.6886920630931854
          0.6951484829187393 0.6992057785391808 0.7075652331113815 0.7121543027460575 0.715418916195631 0.7188204564154148
          0.7239845395088196 0.740181028842926 0.7478131800889969 0.7453816831111908 0.7491526044905186 0.7481483779847622
          0.7465271800756454 0.7470542378723621 0.7518701739609241 0.7597417831420898 0.7595666535198689 0.7634561471641064
          0.7680402509868145 0.7728439196944237 0.77832992374897 0.7839890867471695 0.7895341254770756 0.7951776348054409
          0.8007753044366837 0.8061941675841808 0.8114991523325443 0.8167147412896156 0.6498661488294601 0.6509051397442818
          0.6499209403991699 0.6497128866612911 0.6492964401841164 0.6484259143471718 0.6474137008190155 0.6461764611303806
          0.6445114612579346 0.6431250348687172 0.6422757357358932 0.6417838558554649 0.6412956938147545 0.6401581354439259
          0.6380345374345779 0.6362650655210018 0.6349562928080559 0.6338289007544518 0.6327954940497875 0.6317933388054371
          0.6307753697037697 0.6297781765460968 0.6287709809839725 0.6277269870042801 0.6266652196645737 0.6255267858505249
          0.6241655834019184 0.622585590928793 0.6209536232054234 0.6192840524017811 0.6178177557885647 0.6165298037230968
          0.6153466030955315 0.6142227873206139 0.6131643690168858 0.6121621429920197 0.6112018078565598 0.6103558205068111
          0.6096972264349461 0.6093045473098755 0.6092639528214931 0.6092075146734715 0.6090901717543602 0.6093147471547127
          0.6097810305655003 0.6105386540293694 0.6108243949711323 0.6086403466761112 0.6069783978164196 0.6036719530820847
          0.5980151183903217 0.597276147454977 0.6010652109980583 0.6084448136389256 0.6170976646244526 0.6250296495854855
          0.6363023817539215 0.6397300772368908 0.638187512755394 0.6545106805860996 0.669759351760149 0.6683656610548496
          0.6644951812922955 0.6670064106583595 0.6717288382351398 0.6774012185633183 0.6812141090631485 0.6837997995316982
          0.6866750493645668 0.6867561414837837 0.686271395534277 0.6941531449556351 0.6979226693511009 0.7049808464944363
          0.7121673375368118 0.7151137813925743 0.7191222347319126 0.7251836992800236 0.7420227900147438 0.7494904920458794
          0.745661199092865 0.7487211115658283 0.7470101416110992 0.7453763596713543 0.7456194721162319 0.7501859031617641
          0.7581584639847279 0.7591298818588257 0.7619866691529751 0.766687911003828 0.7714079283177853 0.7770962044596672
          0.7827448956668377 0.7883377075195312 0.7939971424639225 0.799665093421936 0.8052270710468292 0.8106516227126122
          0.8159544169902802 0.8212024793028831 0.6481338143348694 0.6495152786374092 0.6490601152181625 0.6483973041176796
          0.6478503532707691 0.6470433324575424 0.6461998224258423 0.6450141593813896 0.643247090280056 0.641717940568924
          0.6405006609857082 0.639247115701437 0.6381845325231552 0.6383369415998459 0.6369823217391968 0.6354834400117397
          0.6343628391623497 0.6333928667008877 0.6324807666242123 0.6316146478056908 0.6306949630379677 0.6297125294804573
          0.6287437006831169 0.6276925057172775 0.6266309283673763 0.6255514733493328 0.6243212409317493 0.6228425689041615
          0.6212935261428356 0.619584459811449 0.617969986051321 0.6166120395064354 0.615407183766365 0.6142810359597206
          0.613234918564558 0.6122536323964596 0.6113148555159569 0.6104354038834572 0.609726395457983 0.6092397943139076
          0.6090834736824036 0.6093252263963223 0.6093250885605812 0.6095668561756611 0.6101441010832787 0.6110294312238693
          0.6112581193447113 0.6091271489858627 0.6080127023160458 0.6049255393445492 0.5984324626624584 0.5981172919273376
          0.6010317467153072 0.6091682575643063 0.6175513304769993 0.6272119246423244 0.6399196088314056 0.6404932886362076
          0.6418270133435726 0.6592304334044456 0.6739340275526047 0.6659239083528519 0.6657736822962761 0.6697273775935173
          0.6757038533687592 0.6805700734257698 0.6833704151213169 0.685704942792654 0.6891006343066692 0.6859972439706326
          0.6930172145366669 0.6987021677196026 0.7022456862032413 0.7104799672961235 0.7147462368011475 0.7188655696809292
          0.7260993160307407 0.7450492642819881 0.7512706704437733 0.747331790626049 0.7485224083065987 0.7459066137671471
          0.744467344135046 0.7442192621529102 0.7484213784337044 0.7562815733253956 0.7595521062612534 0.7605580873787403
          0.7653624825179577 0.7700004950165749 0.7758789621293545 0.7816141471266747 0.7873055227100849 0.7929215468466282
          0.7986906319856644 0.8044017963111401 0.8100039474666119 0.8154583126306534 0.8207941427826881 0.8260170184075832
          0.6456443071365356 0.6473447158932686 0.6475438922643661 0.6466664485633373 0.6464275531470776 0.6459528543055058
          0.6452788785099983 0.6438721790909767 0.6420460157096386 0.6402448043227196 0.6385136023163795 0.6367794424295425
          0.6359157375991344 0.6356746926903725 0.6352175176143646 0.634409636259079 0.6335542090237141 0.6327712684869766
          0.6320234723389149 0.6311999075114727 0.6303381286561489 0.6295045465230942 0.6287147104740143 0.627830259501934
          0.6267608925700188 0.6256613321602345 0.6244314275681973 0.6230570748448372 0.6215542554855347 0.6199297457933426
          0.6182382702827454 0.6167604178190231 0.6155011914670467 0.6143544986844063 0.6133164688944817 0.6123447306454182
          0.6114183142781258 0.6105609759688377 0.6098332740366459 0.6092886291444302 0.6090102568268776 0.6091696880757809
          0.6096206530928612 0.6098516881465912 0.6105342246592045 0.6115198768675327 0.61164740473032 0.6097143776714802
          0.6090890802443027 0.6061226688325405 0.5989105440676212 0.5987933799624443 0.6009166799485683 0.6102300696074963
          0.6187902763485909 0.62968809902668 0.6437981389462948 0.6413369737565517 0.6464760228991508 0.6623059697449207
          0.6761536188423634 0.6660652421414852 0.6679932773113251 0.6735210083425045 0.6794254742562771 0.6831607595086098
          0.684807825833559 0.6883362494409084 0.6886392384767532 0.6916963756084442 0.6982801631093025 0.7002756223082542
          0.7080596126616001 0.7141430154442787 0.718806829303503 0.7270384058356285 0.7448797300457954 0.7516383863985538
          0.7504704035818577 0.7487874962389469 0.7450584322214127 0.7439140193164349 0.7430670373141766 0.746757484972477
          0.7542631588876247 0.7599639073014259 0.7592019140720367 0.764169305562973 0.7687310315668583 0.7747604884207249
          0.780749998986721 0.7864297516644001 0.7920837625861168 0.7979060374200344 0.803754061460495 0.8095397427678108
          0.8151526711881161 0.8205663450062275 0.82585583999753 0.8310419172048569 0.644424170255661 0.6454504877328873
          0.6460455358028412 0.6454225853085518 0.6454203687608242 0.6454528272151947 0.6444967463612556 0.6429138444364071
          0.6412775181233883 0.6392763145267963 0.6374235674738884 0.6359845250844955 0.6350599117577076 0.6345964819192886
          0.6339853331446648 0.6331577226519585 0.632587656378746 0.6319821439683437 0.6313801743090153 0.6307484582066536
          0.6300260797142982 0.6292984485626221 0.628524374216795 0.6276521980762482 0.6267155334353447 0.625825472176075
          0.6247172728180885 0.623345673084259 0.6217796429991722 0.6201851516962051 0.6184740364551544 0.616909459233284
          0.6156338900327682 0.6145254075527191 0.6134770177304745 0.6124704964458942 0.6115453131496906 0.6107070297002792
          0.6099889576435089 0.6094144657254219 0.6090575270354748 0.6090627983212471 0.6096768081188202 0.6102229207754135
          0.6109483130276203 0.6120248883962631 0.6120308227837086 0.6104285269975662 0.6101760119199753 0.6072819158434868
          0.5995119251310825 0.5991633832454681 0.6007865220308304 0.6112343668937683 0.6208659633994102 0.6326354369521141
          0.6472228579223156 0.6425538323819637 0.6518659591674805 0.6655975505709648 0.6743066683411598 0.6672692634165287
          0.6711842641234398 0.6777195446193218 0.6826756931841373 0.6850348934531212 0.6869470998644829 0.6905539333820343
          0.6904413029551506 0.6974048987030983 0.701832715421915 0.7052096016705036 0.7128407619893551 0.7180771045386791
          0.7268757410347462 0.7423867993056774 0.7531982325017452 0.7530231177806854 0.7495694532990456 0.7446113675832748
          0.7436564192175865 0.7423340193927288 0.7453645244240761 0.7523120157420635 0.7598406262695789 0.7579086311161518
          0.7629598416388035 0.7676387615501881 0.773777037858963 0.7799572683870792 0.7856722921133041 0.7913352325558662
          0.797174297273159 0.8031190745532513 0.8090270198881626 0.8148014545440674 0.8203607499599457 0.8257375359535217
          0.8310220688581467 0.8362294882535934 0.6438325494527817 0.6444402262568474 0.6452089957892895 0.6449011154472828
          0.644958846271038 0.6451776996254921 0.6442858017981052 0.6425379887223244 0.6408304683864117 0.6390332840383053
          0.6371384486556053 0.635629341006279 0.6346419937908649 0.6340127177536488 0.6332550048828125 0.6323932111263275
          0.6317713558673859 0.6313655450940132 0.630793247371912 0.630286268889904 0.6296927705407143 0.6290837451815605
          0.6283979788422585 0.62759018689394 0.6266378201544285 0.6255341023206711 0.6244473233819008 0.6232757791876793
          0.6219819039106369 0.6204123944044113 0.618737205862999 0.617000013589859 0.6155996508896351 0.6144596301019192
          0.6134633757174015 0.6125859618186951 0.6117807663977146 0.6108942180871964 0.6101574562489986 0.6095805019140244
          0.6092027500271797 0.6091141477227211 0.6095492392778397 0.6106177158653736 0.6113810762763023 0.6125363111495972
          0.6124142780900002 0.6112411543726921 0.6112349890172482 0.6084973737597466 0.6002426780760288 0.5991900190711021
          0.6008122935891151 0.6116251088678837 0.6231040544807911 0.6363002248108387 0.6497261226177216 0.644569631665945
          0.6571941487491131 0.6689886935055256 0.6702894493937492 0.6691813804209232 0.6753826327621937 0.68155437707901
          0.6852552406489849 0.6865212731063366 0.6896865852177143 0.6910119466483593 0.6968521624803543 0.7024406157433987
          0.7028460092842579 0.7103554718196392 0.7165945470333099 0.7253442257642746 0.7406453751027584 0.7576723583042622
          0.7548746950924397 0.7502650544047356 0.7447645924985409 0.7434681914746761 0.7420638725161552 0.7443183623254299
          0.7505235895514488 0.759369645267725 0.7568415999412537 0.761677410453558 0.7665688507258892 0.7729618921875954
          0.779131580144167 0.7848888114094734 0.7906237617135048 0.796409647911787 0.8023734427988529 0.8084135167300701
          0.8143535554409027 0.8200623542070389 0.8255489207804203 0.8309386260807514 0.8362729102373123 0.8415965512394905
          0.6446581929922104 0.6440106704831123 0.6444093398749828 0.6446701064705849 0.6446922346949577 0.6450016498565674
          0.6442344784736633 0.6424470245838165 0.6405854485929012 0.6390925645828247 0.6372010819613934 0.635603055357933
          0.6345964893698692 0.6337513998150826 0.6328679323196411 0.6319993324577808 0.6313476487994194 0.6308682933449745
          0.6303847543895245 0.6298952661454678 0.629375271499157 0.6288517117500305 0.6283361464738846 0.6274429485201836
          0.6264056786894798 0.6253559738397598 0.6243542209267616 0.6231975555419922 0.6219392530620098 0.6205555573105812
          0.6191430389881134 0.6173951625823975 0.615805946290493 0.6145502254366875 0.6135047972202301 0.6125896498560905
          0.6117742694914341 0.611118920147419 0.6103997975587845 0.6097897551953793 0.6094122566282749 0.6092904396355152
          0.6095726452767849 0.6107109971344471 0.6118684820830822 0.6130653582513332 0.6128408126533031 0.6121020093560219
          0.6122475154697895 0.6098689660429955 0.6010291650891304 0.5988798439502716 0.6010906584560871 0.6121717505156994
          0.6254979521036148 0.6404945217072964 0.6510305926203728 0.6475457288324833 0.6599938049912453 0.6724982373416424
          0.6692930795252323 0.6722305826842785 0.6795205846428871 0.6847175620496273 0.6868154369294643 0.6881509721279144
          0.6914937347173691 0.6953289471566677 0.7027445398271084 0.7045646160840988 0.7074742168188095 0.7151390835642815
          0.7229441441595554 0.7396052293479443 0.7605783753097057 0.7565241195261478 0.751123420894146 0.7457464598119259
          0.7433557584881783 0.742269717156887 0.7435626722872257 0.7490468919277191 0.7586269415915012 0.7560828886926174
          0.7602544650435448 0.7654410637915134 0.7721314653754234 0.7782257795333862 0.7840266041457653 0.7898256070911884
          0.7956231273710728 0.8015472665429115 0.8076601848006248 0.8137523420155048 0.8196476325392723 0.8253202475607395
          0.8308200761675835 0.8362755663692951 0.8417292684316635 0.8471777103841305 0.6447256430983543 0.6432812958955765
          0.643345944583416 0.6441365033388138 0.6444361805915833 0.6447645574808121 0.6441847234964371 0.6425201818346977
          0.6405452489852905 0.6391950696706772 0.6375107318162918 0.6358617730438709 0.6347028911113739 0.6336524188518524
          0.6326576843857765 0.6317559629678726 0.6310971677303314 0.6305736303329468 0.6302077546715736 0.6296234130859375
          0.6291218549013138 0.6287311762571335 0.6280704252421856 0.627222053706646 0.6262825801968575 0.6252336204051971
          0.6242617703974247 0.6231635324656963 0.621953196823597 0.6206194646656513 0.6191820539534092 0.617613460868597
          0.6160865649580956 0.6147859133780003 0.6137033402919769 0.6127261705696583 0.611879650503397 0.61115463078022
          0.6106003373861313 0.6100940443575382 0.609674297273159 0.609530333429575 0.6097285747528076 0.6106224842369556
          0.6123769842088223 0.6135365068912506 0.6133654117584229 0.6130064092576504 0.6132082678377628 0.6110238619148731
          0.6017820760607719 0.598353449255228 0.6015383936464787 0.6136107891798019 0.628223143517971 0.6447257325053215
          0.6515987478196621 0.6511032767593861 0.6614147834479809 0.6763630919158459 0.6713768020272255 0.6764072328805923
          0.6834570430219173 0.6872305274009705 0.6881820000708103 0.6904358826577663 0.6938536241650581 0.7013136968016624
          0.7059915475547314 0.7051199227571487 0.7119329012930393 0.7201717831194401 0.7379785589873791 0.7600265480577946
          0.7589044757187366 0.7508320733904839 0.74687584862113 0.7434285469353199 0.7430781498551369 0.7431632876396179
          0.7478432916104794 0.7577909342944622 0.7559128142893314 0.7586412653326988 0.764250174164772 0.771125540137291
          0.7772440761327744 0.7830560691654682 0.7889215014874935 0.7947454042732716 0.8006583079695702 0.8067848570644855
          0.8129926174879074 0.8190732039511204 0.8249287083745003 0.8306179568171501 0.8362061753869057 0.8417965546250343
          0.8473898209631443 0.8529973924160004 0.6442641168832779 0.6435731202363968 0.6421842351555824 0.6432797610759735
          0.6438003107905388 0.644041083753109 0.6436707600951195 0.642345741391182 0.6404310055077076 0.6390493176877499
          0.6377175822854042 0.6361243799328804 0.6347865536808968 0.6336089000105858 0.6325320899486542 0.6316439509391785
          0.6309458054602146 0.6303869523108006 0.6299580819904804 0.629477184265852 0.6290116682648659 0.6285766363143921
          0.6278340108692646 0.6271326765418053 0.6262013539671898 0.6251802742481232 0.6241699606180191 0.6231096498668194
          0.621942937374115 0.6206872463226318 0.6192686408758163 0.6177630797028542 0.6160979866981506 0.6147231496870518
          0.6138332635164261 0.6129763722419739 0.6121459417045116 0.6113822348415852 0.6107649393379688 0.6103704757988453